[Molden Format]
[Atoms] (AU)
C    1    6         1.076550843511       0.619975137827       0.000000000000
H    2    1         1.146263289736       2.647709103825       0.000000000000
C    3    6        -1.076549179389      -0.619972014679       0.000000000000
H    4    1         2.865433991474      -0.337420012109       0.000000000000
H    5    1        -1.146330195591      -2.647850036736       0.000000000000
H    6    1        -2.865386900036       0.337523758227       0.000000000000
[GTO]
  1 0
 s    3  1.00
      172.2560000000         0.0617669000
       25.9109000000         0.3587940000
        5.5333500000         0.7007130000
 s    2  1.00
        3.6649800000        -0.3958970000
        0.7705450000         1.2158400000
 p    2  1.00
        3.6649800000         0.2364600000
        0.7705450000         0.8606190000
 s    1  1.00
        0.1958570000         1.0000000000
 p    1  1.00
        0.1958570000         1.0000000000

  2 0
 s    2  1.00
        5.4471780000         0.1562850000
        0.8245470000         0.9046910000
 s    1  1.00
        0.1831920000         1.0000000000

  3 0
 s    3  1.00
      172.2560000000         0.0617669000
       25.9109000000         0.3587940000
        5.5333500000         0.7007130000
 s    2  1.00
        3.6649800000        -0.3958970000
        0.7705450000         1.2158400000
 p    2  1.00
        3.6649800000         0.2364600000
        0.7705450000         0.8606190000
 s    1  1.00
        0.1958570000         1.0000000000
 p    1  1.00
        0.1958570000         1.0000000000

  4 0
 s    2  1.00
        5.4471780000         0.1562850000
        0.8245470000         0.9046910000
 s    1  1.00
        0.1831920000         1.0000000000

  5 0
 s    2  1.00
        5.4471780000         0.1562850000
        0.8245470000         0.9046910000
 s    1  1.00
        0.1831920000         1.0000000000

  6 0
 s    2  1.00
        5.4471780000         0.1562850000
        0.8245470000         0.9046910000
 s    1  1.00
        0.1831920000         1.0000000000

[MO]
 Sym= A'
 Ene= -1.11661551595374249e+01
 Spin= Alpha
 Occup=  2.00000000000000000e+00
  1  6.82368001555646364e-01
  2  6.38331190272301008e-02
  3  1.50081882285615920e-03
  4  8.64428081929467210e-04
  5  0.00000000000000000e+00
  6 -2.99928825877009766e-02
  7 -4.10429764577507645e-03
  8 -2.36391154684999563e-03
  9  0.00000000000000000e+00
 10 -1.78924024104782460e-03
 11  9.51099181568522932e-03
 12  7.12468051598345364e-01
 13  6.68980913651327502e-02
 14 -1.42314710252411836e-03
 15 -8.19297254879179909e-04
 16  0.00000000000000000e+00
 17 -3.29139175660727520e-02
 18  3.51924148883822618e-03
 19  2.02573106925723473e-03
 20  0.00000000000000000e+00
 21 -1.78913268240825114e-03
 22  9.51051314290817483e-03
 23 -1.80079576848790656e-03
 24  9.85625214183315571e-03
 25 -1.80119626948996650e-03
 26  9.85787501208005429e-03
 Sym= A'
 Ene= -1.11659485238611591e+01
 Spin= Alpha
 Occup=  2.00000000000000000e+00
  1  7.12788671205221713e-01
  2  7.24644350916527902e-02
  3 -1.76878131544654961e-03
  4 -1.01854313258219458e-03
  5  0.00000000000000000e+00
  6 -6.84006988369092184e-02
  7  1.34693613953874823e-02
  8  7.75623734383478619e-03
  9  0.00000000000000000e+00
 10 -3.20894803607985014e-04
 11  8.25904573506967138e-03
 12 -6.82702832250907110e-01
 13 -6.96443206412160204e-02
 14 -1.83180884076559677e-03
 15 -1.05513596262112692e-03
 16  0.00000000000000000e+00
 17  6.70425875694997397e-02
 18  1.36333496510285743e-02
 19  7.85247956543465644e-03
 20  0.00000000000000000e+00
 21 -3.20808396416550853e-04
 22  8.25826370546097269e-03
 23  2.42990208753591293e-04
 24 -7.83932400283285022e-03
 25  2.43257560019794622e-04
 26 -7.84105232707493771e-03
 Sym= A'
 Ene= -1.03833071404246224e+00
 Spin= Alpha
 Occup=  2.00000000000000000e+00
  1  1.66819560239868186e-01
  2 -1.83194011964440767e-01
  3  9.58237147709244119e-02
  4  5.51790869014324240e-02
  5  0.00000000000000000e+00
  6 -3.68160435991087942e-01
  7  1.37605648502769073e-02
  8  7.92072373903152105e-03
  9  0.00000000000000000e+00
 10 -7.76803846865720821e-02
 11 -3.95534849370541425e-03
 12  1.66813496271520728e-01
 13 -1.83187369586249399e-01
 14 -9.58244127239101240e-02
 15 -5.51937267343356047e-02
 16  0.00000000000000000e+00
 17 -3.68146348965843917e-01
 18 -1.37603503302094199e-02
 19 -7.93089307890953998e-03
 20  0.00000000000000000e+00
 21 -7.76749451381219813e-02
 22 -3.95665115937848377e-03
 23 -7.76614225358574078e-02
 24 -3.95886758297270269e-03
 25 -7.76744873860141377e-02
 26 -3.95588623299308884e-03
 Sym= A'
 Ene= -7.88721761257909271e-01
 Spin= Alpha
 Occup=  2.00000000000000000e+00
  1  1.27733854896116161e-01
  2 -1.31124455499612769e-01
  3 -1.24443142586627462e-01
  4 -7.16667865334006948e-02
  5  0.00000000000000000e+00
  6 -4.18375190381156226e-01
  7 -5.49095666597441967e-02
  8 -3.16205604490938652e-02
  9  0.00000000000000000e+00
 10 -1.38314148868358078e-01
 11 -6.69124530489080965e-02
 12 -1.27740758692095224e-01
 13  1.31131636996399709e-01
 14 -1.24423296300042424e-01
 15 -7.16325512140296716e-02
 16  0.00000000000000000e+00
 17  4.18393385958456321e-01
 18 -5.49003883362849110e-02
 19 -3.16066934509648123e-02
 20  0.00000000000000000e+00
 21 -1.38310950420396678e-01
 22 -6.69117045954893686e-02
 23  1.38291841226638346e-01
 24  6.69083209890469766e-02
 25  1.38313226994588090e-01
 26  6.69135410107039030e-02
 Sym= A'
 Ene= -6.46709112780752271e-01
 Spin= Alpha
 Occup=  2.00000000000000000e+00
  1 -8.89382151479743005e-07
  2  1.77755019737692310e-06
  3  1.39734874169072154e-01
  4 -2.42699658897614079e-01
  5  0.00000000000000000e+00
  6  2.43353896029613326e-06
  7  9.64716223974378395e-02
  8 -1.67546666193773286e-01
  9  0.00000000000000000e+00
 10 -1.46658921820245564e-01
 11 -1.07837995131753211e-01
 12 -6.97244608260667170e-06
 13  7.05164571436142640e-06
 14  1.39764305462040717e-01
 15 -2.42652708105188658e-01
 16  0.00000000000000000e+00
 17  2.32559341549198884e-05
 18  9.64822353193519611e-02
 19 -1.67524055848441600e-01
 20  0.00000000000000000e+00
 21  1.46637865782217547e-01
 22  1.07822188831678309e-01
 23  1.46625337522771737e-01
 24  1.07818475895183369e-01
 25 -1.46636026644247242e-01
 26 -1.07822647385737491e-01
 Sym= A'
 Ene= -5.90854162979488784e-01
 Spin= Alpha
 Occup=  2.00000000000000000e+00
  1  8.28942444088369076e-03
  2 -2.16180358469930875e-02
  3  3.16005049097123070e-01
  4  1.81964897417204119e-01
  5  0.00000000000000000e+00
  6  2.85539289132588428e-02
  7  1.91947227417131244e-01
  8  1.10526924761310888e-01
  9  0.00000000000000000e+00
 10  1.19427633367565095e-01
 11  1.10133426404887880e-01
 12  8.28085581394077605e-03
 13 -2.16114341413977257e-02
 14 -3.16000481289050228e-01
 15 -1.81990399189634861e-01
 16  0.00000000000000000e+00
 17  2.85948793308900828e-02
 18 -1.91939290622317765e-01
 19 -1.10549667015985925e-01
 20  0.00000000000000000e+00
 21  1.19448988181564020e-01
 22  1.10153306631389225e-01
 23  1.19453704514739426e-01
 24  1.10160302352057024e-01
 25  1.19439177508190275e-01
 26  1.10148277917464565e-01
 Sym= A'
 Ene= -4.98916671013868884e-01
 Spin= Alpha
 Occup=  2.00000000000000000e+00
  1 -7.72978883374977888e-07
  2  2.85299259079364875e-07
  3  1.30082749011514814e-01
  4 -2.25873476219385333e-01
  5  0.00000000000000000e+00
  6 -3.77368970257835334e-06
  7  1.38401622434258825e-01
  8 -2.40309276978540376e-01
  9  0.00000000000000000e+00
 10 -1.79586935945746845e-01
 11 -1.56652843340582465e-01
 12  2.29330869813736474e-06
 13 -1.06356268923454844e-06
 14 -1.30081980965889410e-01
 15  2.25892164045535554e-01
 16  0.00000000000000000e+00
 17 -6.31712621007585184e-06
 18 -1.38391598005552285e-01
 19  2.40335545069082918e-01
 20  0.00000000000000000e+00
 21  1.79588612397077962e-01
 22  1.56657794851576243e-01
 23 -1.79596747038135968e-01
 24 -1.56678880636076601e-01
 25  1.79594250891997431e-01
 26  1.56664412993360425e-01
 Sym= A"
 Ene= -3.79755660053507527e-01
 Spin= Alpha
 Occup=  2.00000000000000000e+00
  1  0.00000000000000000e+00
  2  0.00000000000000000e+00
  3  0.00000000000000000e+00
  4  0.00000000000000000e+00
  5  3.21782834920729344e-01
  6  0.00000000000000000e+00
  7  0.00000000000000000e+00
  8  0.00000000000000000e+00
  9  3.72297320198958559e-01
 10  0.00000000000000000e+00
 11  0.00000000000000000e+00
 12  0.00000000000000000e+00
 13  0.00000000000000000e+00
 14  0.00000000000000000e+00
 15  0.00000000000000000e+00
 16  3.21783121652191695e-01
 17  0.00000000000000000e+00
 18  0.00000000000000000e+00
 19  0.00000000000000000e+00
 20  3.72295471728224747e-01
 21  0.00000000000000000e+00
 22  0.00000000000000000e+00
 23  0.00000000000000000e+00
 24  0.00000000000000000e+00
 25  0.00000000000000000e+00
 26  0.00000000000000000e+00
 Sym= A"
 Ene=  1.86720873194516523e-01
 Spin= Alpha
 Occup=  0.00000000000000000e+00
  1  0.00000000000000000e+00
  2  0.00000000000000000e+00
  3  0.00000000000000000e+00
  4  0.00000000000000000e+00
  5  3.02334614812989622e-01
  6  0.00000000000000000e+00
  7  0.00000000000000000e+00
  8  0.00000000000000000e+00
  9  7.62158307693109327e-01
 10  0.00000000000000000e+00
 11  0.00000000000000000e+00
 12  0.00000000000000000e+00
 13  0.00000000000000000e+00
 14  0.00000000000000000e+00
 15  0.00000000000000000e+00
 16 -3.02335466452039903e-01
 17  0.00000000000000000e+00
 18  0.00000000000000000e+00
 19  0.00000000000000000e+00
 20 -7.62158487620284708e-01
 21  0.00000000000000000e+00
 22  0.00000000000000000e+00
 23  0.00000000000000000e+00
 24  0.00000000000000000e+00
 25  0.00000000000000000e+00
 26  0.00000000000000000e+00
 Sym= A'
 Ene=  2.98767967277042801e-01
 Spin= Alpha
 Occup=  0.00000000000000000e+00
  1  9.06238328587072733e-02
  2 -3.10696917650043133e-02
  3 -1.12319056558972480e-01
  4 -6.46247517040898500e-02
  5  0.00000000000000000e+00
  6 -1.39586874609768619e+00
  7 -5.48369910097526225e-01
  8 -3.15591652542567158e-01
  9  0.00000000000000000e+00
 10  1.58103254421647008e-02
 11  9.63342757103150760e-01
 12  9.06596383094934177e-02
 13 -3.10869150688274989e-02
 14  1.12289742032578188e-01
 15  6.47332243277183861e-02
 16  0.00000000000000000e+00
 17 -1.39622353695532953e+00
 18  5.48258122163989614e-01
 19  3.15931738723977840e-01
 20  0.00000000000000000e+00
 21  1.58437146494277460e-02
 22  9.63810377462985812e-01
 23  1.58580225482782243e-02
 24  9.64030389273245247e-01
 25  1.58274755361950403e-02
 26  9.63582549732503568e-01
 Sym= A'
 Ene=  3.13190436902332892e-01
 Spin= Alpha
 Occup=  0.00000000000000000e+00
  1  4.05306597447359406e-05
  2 -1.66305074302958156e-05
  3  1.08886372027799355e-01
  4 -1.89144881010058136e-01
  5  0.00000000000000000e+00
  6 -5.79965744348973078e-04
  7  4.00245243362068848e-01
  8 -6.95413292464176269e-01
  9  0.00000000000000000e+00
 10  5.17741569582593833e-02
 11  1.00645750655286959e+00
 12  5.54934842038942028e-06
 13  2.03290312777992810e-08
 14  1.08939151451531463e-01
 15 -1.89146650742935546e-01
 16  0.00000000000000000e+00
 17 -2.01389705345778047e-04
 18  4.00548151519034890e-01
 19 -6.95327973212727102e-01
 20  0.00000000000000000e+00
 21 -5.17633593398360153e-02
 22 -1.00567719636845343e+00
 23 -5.17709471704830143e-02
 24 -1.00596475331836865e+00
 25  5.17617835557480088e-02
 26  1.00624807509739056e+00
 Sym= A'
 Ene=  3.43757589172144384e-01
 Spin= Alpha
 Occup=  0.00000000000000000e+00
  1  1.20995115108855522e-01
  2 -4.52954763722325238e-02
  3 -7.74388388715347431e-02
  4 -4.45391255259404567e-02
  5  0.00000000000000000e+00
  6 -1.62043447995710022e+00
  7 -2.66470892161186135e-01
  8 -1.53226069024019140e-01
  9  0.00000000000000000e+00
 10  2.16973250392589433e-02
 11  1.00379900069063965e+00
 12 -1.20969081182108029e-01
 13  4.52870726965615630e-02
 14 -7.73944742752796788e-02
 15 -4.45554958185771996e-02
 16  0.00000000000000000e+00
 17  1.61991758919106332e+00
 18 -2.66209040405199548e-01
 19 -1.53246820349708601e-01
 20  0.00000000000000000e+00
 21  2.17044768575631909e-02
 22  1.00421882353789238e+00
 23 -2.17022623199612796e-02
 24 -1.00355825948551813e+00
 25 -2.17132199405946635e-02
 26 -1.00376982441832641e+00
 Sym= A'
 Ene=  4.39457722030647591e-01
 Spin= Alpha
 Occup=  0.00000000000000000e+00
  1  7.25888755531147681e-06
  2  2.55202963257272070e-06
  3  1.18927473639298245e-01
  4 -2.06530090617258244e-01
  5  0.00000000000000000e+00
  6 -2.05199065368588673e-04
  7  8.33177021105968696e-01
  8 -1.44667956528623076e+00
  9  0.00000000000000000e+00
 10 -4.10440339778169253e-02
 11  1.40762574839513643e+00
 12 -8.71777115375900469e-06
 13  2.82515870773936140e-07
 14 -1.18927068939264691e-01
 15  2.06511908745099115e-01
 16  0.00000000000000000e+00
 17  2.69356061882941589e-04
 18 -8.33051687328798973e-01
 19  1.44663244177694650e+00
 20  0.00000000000000000e+00
 21  4.10411276215991438e-02
 22 -1.40746804154656480e+00
 23 -4.10344493283476344e-02
 24  1.40726616757827250e+00
 25  4.10441875647126336e-02
 26 -1.40749942364501690e+00
 Sym= A'
 Ene=  5.45426918295314644e-01
 Spin= Alpha
 Occup=  0.00000000000000000e+00
  1  9.28769486121962251e-02
  2  6.42685149430698155e-03
  3  1.23485397892451332e-01
  4  7.11179740139300104e-02
  5  0.00000000000000000e+00
  6 -2.70282704065340651e+00
  7  2.30284312879945352e+00
  8  1.32622564162312040e+00
  9  0.00000000000000000e+00
 10 -7.13051315331441338e-02
 11 -4.33241159689424615e-01
 12 -9.28796714817736180e-02
 13 -6.42663055017021062e-03
 14  1.23489200813637207e-01
 15  7.11125165689501654e-02
 16  0.00000000000000000e+00
 17  2.70292893783612120e+00
 18  2.30284998750568626e+00
 19  1.32612673523013558e+00
 20  0.00000000000000000e+00
 21 -7.13043399615909401e-02
 22 -4.33204747445272820e-01
 23  7.13006280457124386e-02
 24  4.33149867813720446e-01
 25  7.13154172064431047e-02
 26  4.33174520163085386e-01
 Sym= A'
 Ene=  8.70161404509115277e-01
 Spin= Alpha
 Occup=  0.00000000000000000e+00
  1  1.76051455531974037e-02
  2  1.13699204947039459e-01
  3 -5.56276229068970118e-01
  4 -3.20440167509980389e-01
  5  0.00000000000000000e+00
  6  4.17758043843347637e-01
  7  9.00882286917549124e-01
  8  5.18921475309673363e-01
  9  0.00000000000000000e+00
 10 -1.31727774748889609e-01
 11 -1.29245242462111498e-01
 12  1.76107987804493826e-02
 13  1.13704057607190614e-01
 14  5.56359929243530726e-01
 15  3.20285586341425732e-01
 16  0.00000000000000000e+00
 17  4.17675913742216909e-01
 18 -9.01004192958626327e-01
 19 -5.18676532221952646e-01
 20  0.00000000000000000e+00
 21 -1.31560523483270186e-01
 22 -1.29300098330346003e-01
 23 -1.31524098069730117e-01
 24 -1.29278889848568806e-01
 25 -1.31724648364487607e-01
 26 -1.29224008290772741e-01
 Sym= A'
 Ene=  9.26157931033500859e-01
 Spin= Alpha
 Occup=  0.00000000000000000e+00
  1 -3.37203377013888753e-06
  2 -2.83951608948647752e-05
  3  2.12940757139559317e-01
  4 -3.69471908944144445e-01
  5  0.00000000000000000e+00
  6 -1.27834234650271716e-04
  7 -3.51079200183473938e-01
  8  6.09264000179736587e-01
  9  0.00000000000000000e+00
 10 -4.41047847570257001e-01
 11  2.28971628010573407e-02
 12 -8.70105201031105314e-06
 13 -3.15960150969133574e-05
 14  2.12675067939456314e-01
 15 -3.69597370569570705e-01
 16  0.00000000000000000e+00
 17  2.74393539970996247e-05
 18 -3.50574726911558554e-01
 19  6.09274757216443197e-01
 20  0.00000000000000000e+00
 21  4.41094923797252403e-01
 22 -2.28598951977560874e-02
 23  4.41082022746480840e-01
 24 -2.29927463970357772e-02
 25 -4.41030140912389512e-01
 26  2.29864797883435057e-02
 Sym= A"
 Ene=  9.90415526785798361e-01
 Spin= Alpha
 Occup=  0.00000000000000000e+00
  1  0.00000000000000000e+00
  2  0.00000000000000000e+00
  3  0.00000000000000000e+00
  4  0.00000000000000000e+00
  5  7.62963033820495462e-01
  6  0.00000000000000000e+00
  7  0.00000000000000000e+00
  8  0.00000000000000000e+00
  9 -5.80532699133440189e-01
 10  0.00000000000000000e+00
 11  0.00000000000000000e+00
 12  0.00000000000000000e+00
 13  0.00000000000000000e+00
 14  0.00000000000000000e+00
 15  0.00000000000000000e+00
 16  7.62980446414539770e-01
 17  0.00000000000000000e+00
 18  0.00000000000000000e+00
 19  0.00000000000000000e+00
 20 -5.80554091023851471e-01
 21  0.00000000000000000e+00
 22  0.00000000000000000e+00
 23  0.00000000000000000e+00
 24  0.00000000000000000e+00
 25  0.00000000000000000e+00
 26  0.00000000000000000e+00
 Sym= A"
 Ene=  1.08033135769720401e+00
 Spin= Alpha
 Occup=  0.00000000000000000e+00
  1  0.00000000000000000e+00
  2  0.00000000000000000e+00
  3  0.00000000000000000e+00
  4  0.00000000000000000e+00
  5  7.96751958817600414e-01
  6  0.00000000000000000e+00
  7  0.00000000000000000e+00
  8  0.00000000000000000e+00
  9 -9.50550366421623383e-01
 10  0.00000000000000000e+00
 11  0.00000000000000000e+00
 12  0.00000000000000000e+00
 13  0.00000000000000000e+00
 14  0.00000000000000000e+00
 15  0.00000000000000000e+00
 16 -7.96734845324381213e-01
 17  0.00000000000000000e+00
 18  0.00000000000000000e+00
 19  0.00000000000000000e+00
 20  9.50537881073068802e-01
 21  0.00000000000000000e+00
 22  0.00000000000000000e+00
 23  0.00000000000000000e+00
 24  0.00000000000000000e+00
 25  0.00000000000000000e+00
 26  0.00000000000000000e+00
 Sym= A'
 Ene=  1.11703290267634525e+00
 Spin= Alpha
 Occup=  0.00000000000000000e+00
  1  9.42270570580904382e-02
  2  5.49198999369327270e-03
  3  4.90455779146374671e-01
  4  2.82494954387183417e-01
  5  0.00000000000000000e+00
  6 -4.01094173197118875e-01
  7 -3.78078870758970953e-01
  8 -2.17895094652738291e-01
  9  0.00000000000000000e+00
 10  4.70434260908006718e-01
 11 -9.88087155987174004e-02
 12 -9.42323445122865838e-02
 13 -5.53643719296392778e-03
 14  4.90491830586135102e-01
 15  2.82400277279454825e-01
 16  0.00000000000000000e+00
 17  4.01080968848665065e-01
 18 -3.78251963193994012e-01
 19 -2.17603435968767023e-01
 20  0.00000000000000000e+00
 21  4.70468311844798315e-01
 22 -9.89659246399666459e-02
 23 -4.70630425274334852e-01
 24  9.91327935250516934e-02
 25 -4.70565497708956115e-01
 26  9.88701123072884269e-02
 Sym= A'
 Ene=  1.12833260069649333e+00
 Spin= Alpha
 Occup=  0.00000000000000000e+00
  1  3.72185154809393515e-02
  2  3.72484105574422519e-01
  3 -1.70633911885500339e-01
  4 -9.82901125581350649e-02
  5  0.00000000000000000e+00
  6 -4.89315000904919917e-01
  7 -7.22923449189732670e-02
  8 -4.15749210560098503e-02
  9  0.00000000000000000e+00
 10  6.02923520166475657e-01
 11 -2.14880561760554478e-01
 12  3.71942294676283619e-02
 13  3.72453317873447487e-01
 14  1.70778479404798705e-01
 15  9.83789387052420861e-02
 16  0.00000000000000000e+00
 17 -4.89117169479882319e-01
 18  7.21130364536161361e-02
 19  4.13660342545495718e-02
 20  0.00000000000000000e+00
 21  6.02928932822011099e-01
 22 -2.14864525774918241e-01
 23  6.02880021075555605e-01
 24 -2.15103003055058500e-01
 25  6.02822483812798460e-01
 26 -2.14873770600487679e-01
 Sym= A'
 Ene=  1.32603814165783662e+00
 Spin= Alpha
 Occup=  0.00000000000000000e+00
  1  2.00066221228500192e-06
  2 -5.58571078133852580e-06
  3  4.13722072215739478e-01
  4 -7.18048890502129833e-01
  5  0.00000000000000000e+00
  6  1.30141732267906318e-04
  7 -9.44292642958883266e-01
  8  1.63917049947606452e+00
  9  0.00000000000000000e+00
 10  2.80779002538448508e-01
 11 -1.08349925766849609e+00
 12 -2.23214294781896166e-06
 13 -6.44491332378073489e-05
 14 -4.13832501426145194e-01
 15  7.18973503712006190e-01
 16  0.00000000000000000e+00
 17 -4.05902488172793507e-05
 18  9.44292900870837282e-01
 19 -1.64037995095600175e+00
 20  0.00000000000000000e+00
 21 -2.80917868463929854e-01
 22  1.08372771403731161e+00
 23  2.81433351049799663e-01
 24 -1.08478497430641774e+00
 25 -2.81382471639854581e-01
 26  1.08454524218692372e+00
 Sym= A'
 Ene=  1.35639676933592046e+00
 Spin= Alpha
 Occup=  0.00000000000000000e+00
  1 -8.54746566039080603e-07
  2  3.71438317164013779e-05
  3  3.44130603199512775e-01
  4 -5.97747831353216519e-01
  5  0.00000000000000000e+00
  6 -7.12203146759279870e-05
  7 -4.24637604714864114e-01
  8  7.37578872685416109e-01
  9  0.00000000000000000e+00
 10  4.78252376712240523e-01
 11 -8.94339399226173226e-01
 12 -9.65727336919332269e-07
 13  8.03393663403803582e-05
 14  3.43604467538538016e-01
 15 -5.96835244209859117e-01
 16  0.00000000000000000e+00
 17 -6.29136043466260730e-05
 18 -4.23374936705577465e-01
 19  7.35487468816987011e-01
 20  0.00000000000000000e+00
 21 -4.78152774556495797e-01
 22  8.94222435245038749e-01
 23 -4.77905528245814393e-01
 24  8.92986403938554885e-01
 25  4.77843024485208823e-01
 26 -8.92801646786903214e-01
 Sym= A'
 Ene=  1.41184662499880709e+00
 Spin= Alpha
 Occup=  0.00000000000000000e+00
  1  2.24468076528747985e-02
  2 -1.34520887932428723e-01
  3 -6.39010472940789831e-01
  4 -3.68113265199383366e-01
  5  0.00000000000000000e+00
  6 -3.42883401900855533e-01
  7  1.14283756194779018e+00
  8  6.58557250345984890e-01
  9  0.00000000000000000e+00
 10  4.64161164207564314e-01
 11 -7.61722315262517768e-01
 12 -2.24475032044470155e-02
 13  1.34713605319603358e-01
 14 -6.39180532358775033e-01
 15 -3.67791106554377967e-01
 16  0.00000000000000000e+00
 17  3.42645410644833726e-01
 18  1.14332116346186297e+00
 19  6.57787197124013456e-01
 20  0.00000000000000000e+00
 21  4.64215938133346606e-01
 22 -7.61468982866346011e-01
 23 -4.64080320000578417e-01
 24  7.61329995439868790e-01
 25 -4.64245297326581707e-01
 26  7.61990271575725964e-01
 Sym= A'
 Ene=  1.64652236770856408e+00
 Spin= Alpha
 Occup=  0.00000000000000000e+00
  1 -1.59960273324025502e-05
  2  3.46972161822401912e-04
  3  1.47273345546232920e-01
  4 -2.55611302015334219e-01
  5  0.00000000000000000e+00
  6 -2.25537674557402604e-04
  7 -1.25582209617115348e+00
  8  2.18015962349482928e+00
  9  0.00000000000000000e+00
 10 -6.97215405978146685e-01
 11 -6.06572007174175365e-01
 12  9.51689548946382628e-07
 13  3.19516708245501900e-04
 14 -1.47254917785902800e-01
 15  2.55711985179481682e-01
 16  0.00000000000000000e+00
 17 -7.08702757594367738e-04
 18  1.25550119436891472e+00
 19 -2.18036924202542570e+00
 20  0.00000000000000000e+00
 21  6.97048983522153054e-01
 22  6.06985044448011601e-01
 23 -6.97168136015037021e-01
 24 -6.06567824834221447e-01
 25  6.97110723212665762e-01
 26  6.06912844518919137e-01
 Sym= A'
 Ene=  1.66286117463048777e+00
 Spin= Alpha
 Occup=  0.00000000000000000e+00
  1  3.31188154679918426e-02
  2 -1.19955520268996585e+00
  3 -1.54586454278338919e-01
  4 -8.91385776591642892e-02
  5  0.00000000000000000e+00
  6  1.66276991397627238e+00
  7  3.03754220876549075e-01
  8  1.75734125791057905e-01
  9  0.00000000000000000e+00
 10  2.08903676508902209e-01
 11 -6.77631565341324293e-01
 12  3.31120962728712054e-02
 13 -1.19956257830957513e+00
 14  1.54540170819200851e-01
 15  8.90234896308207263e-02
 16  0.00000000000000000e+00
 17  1.66289565848133480e+00
 18 -3.03597304790765077e-01
 19 -1.75499507010139721e-01
 20  0.00000000000000000e+00
 21  2.09248373355883338e-01
 22 -6.77245548672453679e-01
 23  2.08754592324271182e-01
 24 -6.77363112462900818e-01
 25  2.09206146274360738e-01
 26 -6.77226656207690292e-01
 Sym= A'
 Ene=  1.97427112369499924e+00
 Spin= Alpha
 Occup=  0.00000000000000000e+00
  1  9.34141147028852187e-04
  2  1.41859133432747542e+00
  3 -9.03776235981223891e-02
  4 -5.20413514683528144e-02
  5  0.00000000000000000e+00
  6 -3.92271271632956475e+00
  7  1.02924847971235733e+00
  8  5.92628380636285979e-01
  9  0.00000000000000000e+00
 10  1.13377953559065756e-01
 11  3.54969483600162894e-01
 12 -9.34257317899910684e-04
 13 -1.41856752086048710e+00
 14 -9.03699026276344880e-02
 15 -5.20584118187170444e-02
 16  0.00000000000000000e+00
 17  3.92261669960718429e+00
 18  1.02916245828630748e+00
 19  5.92832675358704209e-01
 20  0.00000000000000000e+00
 21  1.13353522549322294e-01
 22  3.54890092188089756e-01
 23 -1.13379547056288554e-01
 24 -3.54799224714295758e-01
 25 -1.13393077267537543e-01
 26 -3.54951343282267462e-01
