[Molden Format]
[Atoms] (AU)
H    1    1        -2.151789004247      -1.254562263351       0.000000000967
O    2    8        -0.377790390932      -1.231634308010       0.000000001075
C    3    6         0.491976275911       1.262373627877      -0.000000001207
H    4    1         2.532102880556       1.189660330610      -0.000000001090
H    5    1        -0.121191725108       2.290482826602      -1.670153789409
H    6    1        -0.121191725108       2.290482826602       1.670153786846
[GTO]
  1 0
 s    3  1.00
       33.8650000000         0.0254938000
        5.0947900000         0.1903730000
        1.1587900000         0.8521610000
 s    1  1.00
        0.3258400000         1.0000000000
 s    1  1.00
        0.1027410000         1.0000000000

  2 0
 s    6  1.00
     8588.5000000000         0.0018951500
     1297.2300000000         0.0143859000
      299.2960000000         0.0707320000
       87.3771000000         0.2400010000
       25.6789000000         0.5947970000
        3.7400400000         0.2808020000
 s    3  1.00
       42.1175000000         0.1138890000
        9.6283700000         0.9208110000
        2.8533200000        -0.0032744700
 p    3  1.00
       42.1175000000         0.0365114000
        9.6283700000         0.2371530000
        2.8533200000         0.8197020000
 s    1  1.00
        0.9056610000         1.0000000000
 p    1  1.00
        0.9056610000         1.0000000000
 s    1  1.00
        0.2556110000         1.0000000000
 p    1  1.00
        0.2556110000         1.0000000000
 d    1  1.00
        1.2920000000         1.0000000000

  3 0
 s    6  1.00
     4563.2400000000         0.0019666500
      682.0240000000         0.0152306000
      154.9730000000         0.0761269000
       44.4553000000         0.2608010000
       13.0290000000         0.6164620000
        1.8277300000         0.2210060000
 s    3  1.00
       20.9642000000         0.1146600000
        4.8033100000         0.9199990000
        1.4593300000        -0.0030306800
 p    3  1.00
       20.9642000000         0.0402487000
        4.8033100000         0.2375940000
        1.4593300000         0.8158540000
 s    1  1.00
        0.4834560000         1.0000000000
 p    1  1.00
        0.4834560000         1.0000000000
 s    1  1.00
        0.1455850000         1.0000000000
 p    1  1.00
        0.1455850000         1.0000000000
 d    1  1.00
        0.6260000000         1.0000000000

  4 0
 s    3  1.00
       33.8650000000         0.0254938000
        5.0947900000         0.1903730000
        1.1587900000         0.8521610000
 s    1  1.00
        0.3258400000         1.0000000000
 s    1  1.00
        0.1027410000         1.0000000000

  5 0
 s    3  1.00
       33.8650000000         0.0254938000
        5.0947900000         0.1903730000
        1.1587900000         0.8521610000
 s    1  1.00
        0.3258400000         1.0000000000
 s    1  1.00
        0.1027410000         1.0000000000

  6 0
 s    3  1.00
       33.8650000000         0.0254938000
        5.0947900000         0.1903730000
        1.1587900000         0.8521610000
 s    1  1.00
        0.3258400000         1.0000000000
 s    1  1.00
        0.1027410000         1.0000000000

[5D]
[9G]

[MO]
 Sym= A
 Ene= -2.05416938922816250e+01
 Spin= Alpha
 Occup=  2.00000000000000000e+00
  1  2.14953770884575236e-04
  2 -3.76267805714211340e-05
  3  8.76941175687860099e-05
  4  5.51441200146200572e-01
  5  4.71660761083596614e-01
  6 -1.06368955920416869e-03
  7  1.43397488107832875e-03
  8 -1.31360792740304461e-12
  9  5.65234497447147238e-03
 10  3.45395025959388687e-04
 11 -5.15173660391325238e-04
 12  4.75049311004930100e-13
 13 -6.84153120590404260e-04
 14 -2.09120151239867015e-04
 15 -5.04395769204185791e-05
 16 -1.12060426042670525e-14
 17  1.36655698484462339e-04
 18  1.63038626246588339e-13
 19  3.42028471923784202e-13
 20  3.42032940503435474e-05
 21 -8.99598658210103841e-05
 22 -3.19641124485861626e-06
 23 -3.00788300331924390e-05
 24 -2.69863192401794869e-06
 25 -4.24793708447050397e-05
 26  2.09686868563041529e-14
 27  8.28611438507936273e-05
 28 -9.75025605772816589e-05
 29 -1.88783413130833781e-04
 30  1.38715428033009402e-13
 31  5.11993354031323004e-04
 32  3.62570906542573641e-05
 33 -1.99846858285289246e-04
 34  4.85127563121245942e-13
 35 -6.97247243106258798e-05
 36 -1.13411260634424527e-13
 37 -1.09149126369112448e-13
 38 -6.94284529497559766e-05
 39  8.67771741714677615e-05
 40  2.56747586059685550e-05
 41 -1.35891590838808072e-04
 42 -2.63269940583112701e-05
 43  1.28395127605701457e-05
 44 -7.29048374195074818e-05
 45 -1.12288794973346151e-05
 46  1.28395127416372381e-05
 47 -7.29048377342005234e-05
 48 -1.12288797151603725e-05
 Sym= A
 Ene= -1.12647888227940900e+01
 Spin= Alpha
 Occup=  2.00000000000000000e+00
  1 -8.93463106715333341e-06
  2 -4.53622378265742610e-05
  3 -3.51713496729985295e-05
  4 -7.41355655789405140e-05
  5 -1.35465963073565481e-04
  6  3.31010950743175936e-05
  7  1.11314670704703837e-04
  8 -8.09814658365125284e-14
  9  3.28807716197116069e-04
 10  1.70328022619199509e-04
 11  5.17401182771637792e-04
 12 -5.40444777688900424e-13
 13  3.64789588333043111e-04
 14  5.38073066256401430e-07
 15  1.33340283004643504e-04
 16 -1.43336080851708125e-13
 17 -1.08868000254157672e-04
 18 -1.18179093898038157e-13
 19 -4.17143743321451294e-13
 20 -1.62412840078738062e-04
 21  1.03350656322825533e-04
 22  5.63436561388584001e-01
 23  4.66554920636870318e-01
 24 -4.10154352609856166e-04
 25 -8.73701151732724640e-04
 26  7.44131319063701113e-15
 27  4.14456651017827606e-03
 28  2.96441007953101004e-04
 29  6.59690565035890141e-04
 30  1.00111759160359526e-13
 31 -1.31813249707598765e-03
 32 -1.06064986879405784e-04
 33 -1.70844271666746247e-04
 34 -4.24396628950773902e-13
 35  1.18241399045033936e-04
 36  3.97131600608086055e-14
 37  1.66447259621060883e-13
 38  2.00102374126412321e-04
 39 -1.61150851677681843e-04
 40  3.43151739707652317e-04
 41  9.42145281229878496e-05
 42  3.01457130647024216e-04
 43  3.47008106871409124e-04
 44  9.87391095111732732e-05
 45  2.75393038921174088e-04
 46  3.47008106946274097e-04
 47  9.87391096441050248e-05
 48  2.75393039299728914e-04
 Sym= A
 Ene= -1.36462047582856294e+00
 Spin= Alpha
 Occup=  2.00000000000000000e+00
  1  9.41296479590267438e-02
  2  3.28708176303133051e-02
  3  4.04824593497023905e-04
  4 -1.09670184615900418e-01
  5 -1.83590977667375005e-01
  6 -1.84472244299586988e-02
  7  2.91438741351540444e-02
  8 -2.69988466804725602e-11
  9  5.20440798442371011e-01
 10 -4.64451148726695295e-02
 11  5.35026425679015760e-02
 12 -5.23504577361333379e-11
 13  4.25739735045391865e-01
 14 -2.50553723583565036e-02
 15  4.01349963819116404e-02
 16 -3.37845706271933111e-11
 17 -1.24053263892902471e-02
 18 -6.14678880711538866e-13
 19 -1.53613349796431764e-11
 20  5.23981662508549422e-03
 21  2.50634436627671054e-03
 22 -3.77094671891557640e-02
 23 -6.28347465996169363e-02
 24 -1.63680586567791914e-02
 25 -3.96240044762923502e-02
 26  4.09976818119273112e-11
 27  1.60036436839781693e-01
 28 -2.44103722235346141e-02
 29 -6.32489582386642629e-02
 30  6.78441677837149371e-11
 31  2.00533821565355014e-02
 32 -7.71696159293198958e-04
 33  8.76932637539130228e-03
 34 -2.19999435335793692e-11
 35 -1.15682325778247511e-02
 36 -1.30693406400969603e-11
 37 -3.01707543497176101e-11
 38 -1.38610992964903323e-02
 39  1.22024745800337203e-02
 40  1.54905524398353846e-02
 41  1.85896311112168332e-02
 42  9.52779456511440581e-04
 43  1.59015175280914495e-02
 44  1.68072087658110852e-02
 45 -2.67805216372812849e-03
 46  1.59015175527790209e-02
 47  1.68072087820887034e-02
 48 -2.67805214354149834e-03
 Sym= A
 Ene= -9.28309866498852498e-01
 Spin= Alpha
 Occup=  2.00000000000000000e+00
  1  7.83448593872857896e-02
  2  6.89231499422929272e-02
  3  1.61976776714971467e-02
  4 -3.06515360744170039e-02
  5 -5.15659970843705545e-02
  6 -6.41300290785365018e-02
  7 -6.44458990707263563e-02
  8  3.76995343579974995e-11
  9  1.48071546152990230e-01
 10 -1.14662737876608536e-01
 11 -1.07859139351603475e-01
 12  6.92740561095139817e-11
 13  1.69127770740711364e-01
 14 -5.73472359147795124e-02
 15 -5.60514790561585860e-02
 16  3.04761771374728596e-11
 17 -1.76836443023977406e-04
 18  6.44926863649364357e-12
 19  1.76309021093605522e-11
 20  1.92204659421803953e-02
 21 -4.60418706772432532e-03
 22  9.46170409848588051e-02
 23  1.60513072011393892e-01
 24 -1.50584621067091987e-02
 25 -2.08990776676169845e-02
 26 -1.26942015926667651e-11
 27 -4.27647426047977453e-01
 28 -2.60373932311037705e-02
 29 -3.73507738689143887e-02
 30 -2.18198653589851688e-11
 31 -3.20154709978245022e-01
 32 -3.55741572323368949e-03
 33 -3.07939164035935381e-02
 34  1.12437836818912729e-11
 35 -4.69599575223709088e-03
 36  1.53232049444895768e-12
 37  7.80714794028358750e-12
 38 -7.00886593540462569e-03
 39  8.00117162903884148e-03
 40 -8.93026854992968050e-02
 41 -8.96572544040199482e-02
 42 -4.37774887506278687e-04
 43 -8.47976143987372033e-02
 44 -8.04387789521186225e-02
 45  3.49848281098540104e-03
 46 -8.47976144054814474e-02
 47 -8.04387789594709357e-02
 48  3.49848280734021966e-03
 Sym= A
 Ene= -6.97086012431015423e-01
 Spin= Alpha
 Occup=  2.00000000000000000e+00
  1  1.37968429457315189e-01
  2  1.63333378092944598e-01
  3  3.97510330739937329e-02
  4  2.23278667106147459e-02
  5  3.77471588380471276e-02
  6 -1.88410485140311140e-01
  7 -2.70911289037463580e-02
  8 -1.27268119545602409e-11
  9 -1.17099566482037107e-01
 10 -3.06156798790255535e-01
 11 -4.53096196458618664e-02
 12 -1.88136633008650911e-11
 13 -1.23474249160471380e-01
 14 -2.06390646085243656e-01
 15 -6.90705401348987429e-03
 16 -3.48847088368908764e-11
 17 -8.85085152921104464e-03
 18  1.33964749016168838e-11
 19  1.56570115488093020e-12
 20  2.01518752060838788e-02
 21 -1.24653581872580625e-02
 22 -1.34223677111627460e-02
 23 -2.22596362221643279e-02
 24 -4.63624847769970733e-02
 25  1.11349877631899172e-01
 26 -1.35696967551446335e-10
 27  5.40513000241154562e-02
 28 -7.80246169735492601e-02
 29  2.04173633153958978e-01
 30 -2.48719871087654809e-10
 31  6.91496413656322029e-02
 32 -5.78471063457021151e-02
 33  9.45586779162805730e-02
 34 -1.17269194355174022e-10
 35  2.69362538647828983e-02
 36  1.37952828414139583e-11
 37  2.81468385925076614e-11
 38  1.91499945718369632e-02
 39 -1.04097971117906463e-02
 40 -2.22393775066373166e-02
 41 -2.17293604909757979e-02
 42 -7.28301739809256860e-03
 43  6.94988003559994239e-02
 44  8.13812591660755674e-02
 45  2.23307916898822234e-02
 46  6.94988002141269795e-02
 47  8.13812589929916036e-02
 48  2.23307916378106541e-02
 Sym= A
 Ene= -6.22350339406635311e-01
 Spin= Alpha
 Occup=  2.00000000000000000e+00
  1  1.03889509842081118e-12
  2  1.98422944741594165e-11
  3 -3.81150180861489218e-11
  4  4.13887050615413272e-11
  5  7.04078293250028553e-11
  6 -7.25870928034583196e-11
  7  4.59320124036183275e-10
  8  1.55648343240100323e-01
  9 -2.17530518554706620e-10
 10 -1.12128619757234649e-10
 11  7.07258092369489333e-10
 12  2.43726433923937308e-01
 13 -2.93217394808920062e-10
 14 -9.51227326073667001e-11
 15  6.20125383335445868e-10
 16  2.13998500415706727e-01
 17 -3.72988901049808863e-11
 18 -4.97107734561107878e-03
 19  1.43107225795678344e-02
 20 -3.93340301736017084e-11
 21 -2.45391190006882809e-11
 22  1.32869949851649460e-11
 23  2.25626939007184113e-11
 24 -2.87317335721792855e-10
 25  6.22927837784503780e-12
 26  1.60087371368862197e-01
 27 -6.34965656443053916e-11
 28 -5.03407978497127928e-10
 29  1.60456023468036335e-11
 30  2.82944845517418164e-01
 31 -1.32822711162994267e-10
 32 -3.22194229629424456e-10
 33  7.13205328128907468e-11
 34  1.56134829309580364e-01
 35  3.69986574201303792e-11
 36 -2.41468420941417447e-02
 37  1.62791835062431681e-02
 38 -4.84478521753720082e-11
 39  2.58168083265564174e-11
 40 -2.54879991244683080e-10
 41 -3.07637722588016693e-10
 42 -1.06486403028682730e-10
 43 -1.08992347469372405e-01
 44 -1.44099388693548908e-01
 45 -6.50050767780490230e-02
 46  1.08992347575167556e-01
 47  1.44099388800229211e-01
 48  6.50050768335424523e-02
 Sym= A
 Ene= -5.97303857505798952e-01
 Spin= Alpha
 Occup=  2.00000000000000000e+00
  1  2.89679693998452989e-02
  2  3.05468706820161660e-02
  3  3.92152733194969100e-02
  4 -1.41794294412520647e-02
  5 -2.41355157846423161e-02
  6 -3.91111573257134793e-03
  7 -1.83260171816566897e-01
  8  4.91886047525151322e-10
  9  7.45156396047230024e-02
 10 -7.53823332847958650e-03
 11 -2.83584207088942664e-01
 12  7.68344190300775803e-10
 13  1.05078795702511774e-01
 14 -2.75913517953262338e-03
 15 -2.43204679535897472e-01
 16  6.80489967326558531e-10
 17  6.32056111616382567e-03
 18 -1.80899563042994163e-11
 19  5.84445607347875394e-11
 20  1.95724062466088797e-02
 21  8.91137815656693928e-03
 22 -2.00517576677959473e-04
 23 -1.27736690850078409e-04
 24  1.49489199779936688e-01
 25  6.92330130120053372e-02
 26  2.32674525046244751e-10
 27 -4.48288578980431118e-04
 28  2.60942619146367016e-01
 29  1.20359116766338634e-01
 30  4.06982809432465675e-10
 31  4.19783958129655091e-02
 32  1.77816346787728730e-01
 33  4.01927143930838407e-02
 34  2.79963597443755319e-10
 35  6.61922552518880484e-04
 36 -1.79931317512583427e-11
 37  5.36431615815770313e-11
 38  3.63467872666844646e-02
 39 -2.30097652238164842e-02
 40  1.30291877451860050e-01
 41  1.57381804755084787e-01
 42  5.49746978169402128e-02
 43 -7.50017340040008522e-03
 44 -7.31874988338361045e-03
 45 -4.47160475633684093e-03
 46 -7.50017304075631212e-03
 47 -7.31874940670915880e-03
 48 -4.47160451731579839e-03
 Sym= A
 Ene= -4.98154822887885818e-01
 Spin= Alpha
 Occup=  2.00000000000000000e+00
  1  8.36910047907532956e-02
  2  1.26885013291104604e-01
  3  3.50747829042298287e-02
  4  2.54266252535674878e-02
  5  4.31326740016113597e-02
  6 -1.24592816784701119e-01
  7  1.44020704337797206e-01
  8 -3.15723634410937370e-10
  9 -1.32555279425251360e-01
 10 -1.93610445955448435e-01
 11  2.13693281984520422e-01
 12 -4.76609369266974003e-10
 13 -1.91641443584691429e-01
 14 -1.78543080736450865e-01
 15  2.45680021322086217e-01
 16 -5.15109216565889927e-10
 17 -1.29691214084122815e-02
 18  1.40112242554696342e-11
 19 -2.44611222553411944e-11
 20  5.78271884687178109e-03
 21 -5.97962872590779120e-03
 22 -5.06705402664958410e-03
 23 -8.70540318812089778e-03
 24  1.05896612984199140e-01
 25 -9.13810114668971718e-02
 26  1.18091728236457971e-10
 27  2.67524951083533101e-02
 28  1.89350333284828476e-01
 29 -1.56400757434883880e-01
 30  2.05103316275323522e-10
 31 -3.34882661964135131e-02
 32  1.11223275865465904e-01
 33 -6.00611011152053301e-02
 34  5.61476143356998136e-11
 35 -2.74428343624946863e-02
 36 -1.93453665630130556e-11
 37  3.75825576172036935e-11
 38  2.85701647295932767e-02
 39  2.45287711265396446e-02
 40  1.13566772615531247e-01
 41  1.92414696688584103e-01
 42  8.22959845266791334e-02
 43 -7.24545970145862583e-02
 44 -1.09808092979616606e-01
 45 -6.27440665802933978e-02
 46 -7.24545968235593141e-02
 47 -1.09808092624316483e-01
 48 -6.27440664315978835e-02
 Sym= A
 Ene= -4.44930369427420480e-01
 Spin= Alpha
 Occup=  2.00000000000000000e+00
  1  4.52782910990989773e-11
  2  9.07868780153364696e-11
  3  4.18600223928144999e-11
  4  8.14099946784270327e-12
  5  1.38770687208879511e-11
  6 -6.60634770629706103e-11
  7  4.01196170686166087e-10
  8  2.47850310859317358e-01
  9 -4.58835160621270943e-11
 10 -1.00989590388206318e-10
 11  6.00995642141555209e-10
 12  3.72044092246629710e-01
 13 -7.56205900849515888e-11
 14 -1.07778468441677155e-10
 15  6.92603355743892646e-10
 16  4.31014346696641182e-01
 17 -2.33436399550701612e-11
 18 -1.18636545797494927e-02
 19  7.67985188734405209e-03
 20 -5.47625356520087259e-12
 21 -1.74733789178212195e-11
 22  2.03359854997198219e-12
 23  3.11766281194114647e-12
 24  7.03536204987864622e-11
 25 -1.50922052633006842e-10
 26 -1.02760265045283045e-01
 27  1.90752968975971271e-12
 28  1.23584899258677439e-10
 29 -2.56803283499307256e-10
 30 -1.81133052938574485e-01
 31 -1.57028071101628086e-10
 32  9.21286866240045299e-11
 33 -1.86798708445845563e-10
 34 -1.03498871001199449e-01
 35  8.53822215837393705e-12
 36  4.76036444075767298e-03
 37 -4.96278546612734933e-02
 38  3.48662084447004528e-11
 39  2.51256380067940710e-11
 40  6.87466947518061700e-11
 41  1.45254945224659870e-10
 42  5.07845293595821090e-11
 43  9.52643900854380360e-02
 44  1.71570807119106161e-01
 45  8.04088858393785799e-02
 46 -9.52643902584234675e-02
 47 -1.71570807316389740e-01
 48 -8.04088858967232367e-02
 Sym= A
 Ene=  1.54628298440056211e-01
 Spin= Alpha
 Occup=  0.00000000000000000e+00
  1  2.78166511496138504e-02
  2 -7.90610263603200442e-02
  3  9.40793479465083071e-01
  4  1.98308684514676668e-02
  5  3.30555460671420193e-02
  6  5.60653700493249987e-02
  7  1.22916256841894295e-02
  8 -1.75255998949297442e-11
  9 -8.02724743013250447e-02
 10  7.85139475990763586e-02
 11 -6.80923339697931188e-04
 12 -5.10632335026794948e-12
 13 -3.91677567508139590e-01
 14  2.08079965563193026e-01
 15  1.46116973729745969e-01
 16 -1.39451072217466887e-10
 17  2.31672265664482901e-03
 18 -4.13878306626536130e-12
 19 -9.89296968997854798e-13
 20 -3.65466927135236954e-03
 21  2.79109177594855182e-03
 22  2.93353094198334011e-02
 23  4.60881035418836613e-02
 24 -2.96514658018816497e-03
 25 -6.28062492315900611e-02
 26  1.80812448347111854e-11
 27 -1.29380485241361726e-02
 28 -5.04586554072115195e-03
 29 -6.83556230989281199e-02
 30  9.73898739431433569e-12
 31 -1.67570122591876935e+00
 32  5.35835494562821868e-02
 33 -2.86518401413704438e-01
 34 -1.47258316651743826e-10
 35  3.65170954684069030e-03
 36  1.58275584478950737e-11
 37  1.74395532737126047e-11
 38  4.38660349751560444e-03
 39 -1.00351496680442468e-02
 40  1.61822141891965546e-03
 41  4.10485302153970819e-02
 42  4.25140859699674967e-01
 43  2.85319146589511387e-03
 44  1.12209446664467260e-02
 45  7.89811190463501012e-01
 46  2.85319149060762889e-03
 47  1.12209448739012396e-02
 48  7.89811190315961920e-01
 Sym= A
 Ene=  1.89186689962335286e-01
 Spin= Alpha
 Occup=  0.00000000000000000e+00
  1  3.68028432477627912e-02
  2 -7.10233095841692336e-02
  3  1.20901409258371917e+00
  4  2.28042434371915556e-02
  5  3.75348059366387571e-02
  6  5.37332140213701570e-02
  7 -2.48518974439850791e-02
  8  5.66425951281646078e-11
  9 -7.44198120432366106e-02
 10  7.06971523263548313e-02
 11 -5.47368327910900260e-02
 12  8.08892757463153256e-11
 13 -6.02930150785519814e-01
 14  1.93089871940131469e-01
 15 -5.00950018861584176e-02
 16  2.24902405726590260e-10
 17  1.48173049378837011e-03
 18 -1.16678520144242182e-11
 19 -3.76914244173270907e-12
 20 -3.23274489105587932e-03
 21  7.19883258447174927e-03
 22 -3.58856793170451854e-02
 23 -5.92300740699441552e-02
 24  2.66066092329459297e-02
 25 -1.57517374880076014e-04
 26 -8.80985284723578843e-11
 27  8.79327870163359726e-02
 28  8.33383360439195892e-03
 29 -2.10248601803164799e-02
 30 -8.00255833821594820e-11
 31  1.33229807086213903e+00
 32  3.07121745674451496e-01
 33  5.58464744720984507e-02
 34 -6.76908806784837225e-10
 35 -1.37654669061297813e-04
 36  4.24160749926127956e-12
 37  1.87895272257820878e-12
 38  3.62251265772693242e-03
 39 -9.70616548567057938e-03
 40 -1.25344220030606628e-02
 41  5.90016523794191575e-02
 42 -1.09222971561869819e+00
 43 -1.10300400691436019e-02
 44  6.83103643799357896e-02
 45 -6.02386662868970246e-01
 46 -1.10300400205197852e-02
 47  6.83103642916501608e-02
 48 -6.02386660746700886e-01
 Sym= A
 Ene=  2.27330422458409454e-01
 Spin= Alpha
 Occup=  0.00000000000000000e+00
  1 -4.39057089296479575e-11
  2 -1.46390399802243110e-11
  3 -5.56859613976001810e-10
  4  1.28565381742897465e-11
  5  2.27695388043368252e-11
  6 -6.86483942607951647e-12
  7 -5.25606394345679018e-11
  8  1.59220002817392139e-02
  9 -8.37638413492269862e-11
 10 -3.17096106317027449e-11
 11 -7.27638678477138257e-11
 12  8.12208301517300044e-03
 13 -1.50946546928487635e-11
 14  1.48058065807532557e-10
 15 -1.22103188671118801e-10
 16  1.24690568976943264e-01
 17  1.48062100774337679e-11
 18 -5.88479309254328394e-03
 19 -5.62425223683657612e-03
 20 -4.33893546092356530e-12
 21 -2.29178672567220687e-11
 22  1.85885161430032753e-12
 23  9.92424892265475478e-13
 24 -3.01968703514399195e-10
 25 -1.03988311017655377e-11
 26 -1.36320522258260274e-01
 27  6.27926322049887631e-11
 28 -2.99926722346910424e-10
 29 -4.21486040513840976e-11
 30 -1.31052328379145738e-01
 31 -8.41563152498281397e-10
 32 -2.55758786371629299e-09
 33  1.45292722297796217e-10
 34 -1.14227593202674882e+00
 35  1.27874317037979246e-12
 36 -2.48322494292127494e-03
 37  4.36393707224850495e-03
 38  2.77822829845841834e-11
 39 -8.37409221826623806e-12
 40  2.72860518901740789e-11
 41 -2.09604320011713696e-10
 42  5.09843167684209675e-09
 43 -1.23363892787867954e-02
 44  1.38915117374075719e-01
 45 -1.92722150851406715e+00
 46  1.23363892334431291e-02
 47 -1.38915117037333224e-01
 48  1.92722150502123313e+00
 Sym= A
 Ene=  2.33986640884026681e-01
 Spin= Alpha
 Occup=  0.00000000000000000e+00
  1 -5.12661370638202614e-04
  2  4.54402697106249601e-02
  3 -3.24689603063395449e-01
  4 -9.36076395564835323e-03
  5 -1.55236060940425625e-02
  6 -2.14622034066963008e-02
  7  2.05079589597509278e-02
  8 -1.25063475200914986e-11
  9  3.32382053233817379e-02
 10 -2.30336145336001094e-02
 11  2.95847115280236904e-02
 12 -3.89820437214638549e-11
 13  2.50655573364857276e-01
 14 -1.21218336001782001e-01
 15  8.70326787586390566e-02
 16  6.82584891387172377e-11
 17  1.53568382208589191e-04
 18 -1.69735072351462346e-11
 19 -8.27244490356898732e-12
 20  5.33270735635179259e-03
 21  5.33351974842136492e-03
 22  3.99429010498539728e-03
 23  6.77557363886766538e-03
 24  1.26841118475626957e-01
 25 -3.42029646054079900e-02
 26 -2.74759482526976129e-10
 27 -1.24206179220086865e-02
 28  1.24760213021981231e-01
 29 -2.48846260112129611e-02
 30 -2.66549698979545724e-10
 31 -8.53773964795533913e-02
 32  1.09802430918995042e+00
 33 -2.87079853754868775e-01
 34 -2.35098573941883160e-09
 35  3.38865462708340089e-03
 36 -3.74119095078451203e-12
 37  5.78913176077500147e-12
 38 -8.55763467873751557e-03
 39  3.06490381906214830e-03
 40 -1.78751778530286745e-02
 41  9.77954987017044391e-02
 42 -2.14331363993159396e+00
 43  1.15961993311467296e-02
 44 -7.78909744029021162e-02
 45  1.12192174460513638e+00
 46  1.15961993753617432e-02
 47 -7.78909750162750658e-02
 48  1.12192175274374040e+00
 Sym= A
 Ene=  3.46285160603299280e-01
 Spin= Alpha
 Occup=  0.00000000000000000e+00
  1  3.46009892720663828e-03
  2  6.98660580962087163e-02
  3 -9.09609011505511322e-01
  4  2.47220921310019465e-02
  5  4.02762744969156761e-02
  6 -7.07421155601172524e-02
  7 -1.06372988421971154e-01
  8  1.46507563323966181e-10
  9 -6.58328641708328249e-02
 10 -7.94782733352784598e-02
 11 -1.28031038551479931e-01
 12  1.69967853159980198e-10
 13 -1.06273842155488851e+00
 14 -4.08197879153052889e-01
 15 -7.08462657711994792e-01
 16  9.03653193939923938e-10
 17  2.83287705125896162e-03
 18 -5.72989160459169700e-12
 19  9.35322446663638951e-12
 20  6.74067506129205282e-03
 21  4.62707878634042720e-04
 22 -1.34033512945521769e-02
 23 -2.20486752593542570e-02
 24 -2.15742240546159085e-02
 25 -8.73740673239875032e-02
 26  2.29109344343503274e-11
 27  9.36858060105317733e-03
 28 -1.78731359119118985e-02
 29 -8.39459754921090956e-02
 30  4.04134503639852483e-11
 31  6.83954770926990085e-01
 32 -4.97188971117667022e-01
 33 -1.79635933510387558e+00
 34  8.68521810026834373e-10
 35  1.04520694849873433e-02
 36 -1.73682709924197209e-11
 37  3.01907219927080583e-11
 38  1.41183008949104898e-02
 39 -8.17190958169044905e-03
 40  1.48623931955599118e-02
 41  1.74520957264065801e-01
 42 -1.62977795575748180e-01
 43  1.37334205204070955e-02
 44  2.02636884784376609e-01
 45  3.26101083050653884e-01
 46  1.37334206916588861e-02
 47  2.02636885830538321e-01
 48  3.26101080947130195e-01
 Sym= A
 Ene=  4.61277909893875737e-01
 Spin= Alpha
 Occup=  0.00000000000000000e+00
  1  2.66155626572945059e-02
  2 -3.58612071415368716e-01
  3  4.39374336809394916e-01
  4  5.29398626228240292e-03
  5  9.73426678394202424e-03
  6 -4.07890598113479150e-02
  7  4.27389118119522182e-02
  8  1.46562896720251259e-10
  9 -4.66714087636362490e-02
 10 -1.75821820707573150e-02
 11  6.67893642234780593e-02
 12  1.24745453116553717e-10
 13  5.62028237180700746e-02
 14 -5.26854361739649280e-01
 15  1.46683705252855845e-01
 16  1.10788651083021383e-09
 17  1.35111811787731132e-03
 18 -3.70858230193046867e-11
 19  9.51356974156301188e-12
 20  6.53084882587787532e-03
 21  6.36918387838369439e-03
 22 -1.44431945300075746e-03
 23 -4.11803290449048315e-03
 24  1.86046398952373418e-02
 25 -7.39846292299607515e-03
 26 -7.66309836766621011e-11
 27  4.32346584278195736e-02
 28 -3.89638112278759274e-02
 29 -5.05943971302052868e-03
 30  8.91229139099447565e-11
 31 -6.83123283507513362e-02
 32  1.83032661265219931e+00
 33 -5.92745067139547333e-01
 34 -5.27055081522842528e-09
 35  2.13331369209907896e-02
 36 -9.50491562626970543e-11
 37 -2.95467930721063365e-11
 38 -7.22135974671393992e-03
 39  1.98186409743859662e-02
 40 -5.11100038056012326e-02
 41 -1.33326839440720235e+00
 42 -5.24154096792888227e-02
 43  2.60050895998824860e-02
 44  6.60377100666987848e-01
 45 -2.51792369393242232e-02
 46  2.60050898700902589e-02
 47  6.60377107197747004e-01
 48 -2.51792368186065096e-02
 Sym= A
 Ene=  4.84119339588055420e-01
 Spin= Alpha
 Occup=  0.00000000000000000e+00
  1 -2.02962188288607903e-10
  2 -3.48606852586252902e-10
  3 -1.55716994854060431e-10
  4 -4.52161171900927489e-11
  5 -7.24485933942378485e-11
  6  1.01666038651929136e-10
  7 -1.06146208250952612e-10
  8  7.47486823001323325e-02
  9  7.52963105277518197e-11
 10  2.01069707758683158e-11
 11 -2.30351720770932689e-10
 12  9.15438480768728802e-02
 13  2.60189412550071442e-09
 14  1.29756437365624588e-09
 15  7.29253158728015993e-10
 16  3.96423650986742426e-01
 17  2.06623368588509937e-12
 18 -1.22107447368038965e-02
 19 -4.14209837953753626e-03
 20 -5.65216499905790704e-11
 21 -2.58999272224370858e-11
 22 -1.67449797517510435e-11
 23 -2.84055578538000564e-11
 24 -1.04484383384867430e-10
 25  1.06102080246750496e-11
 26 -3.83959253572073306e-02
 27  1.25237500925301504e-10
 28 -1.23165470877761862e-11
 29  7.97939839203287704e-11
 30 -2.34951785396823876e-03
 31 -7.08032743546027632e-10
 32 -4.53624146579123533e-09
 33  3.61976439794409188e-09
 34 -1.85884796945749975e+00
 35 -3.24277409124214960e-11
 36 -3.72552294498164280e-02
 37 -7.54837296892513134e-03
 38  8.17265744012043993e-11
 39 -9.00230916287686478e-11
 40  1.30429255069952621e-10
 41  3.72138705267976988e-09
 42  9.96277019216229576e-11
 43 -4.76377580439811890e-02
 44 -1.15055961084705216e+00
 45 -7.27116932146194273e-02
 46  4.76377577496031254e-02
 47  1.15055960592081119e+00
 48  7.27116930622100366e-02
 Sym= A
 Ene=  5.96202180215291366e-01
 Spin= Alpha
 Occup=  0.00000000000000000e+00
  1  1.02297701044311365e-01
  2  2.15245183818015340e+00
  3 -1.01960455389343885e+00
  4  1.56642925888313619e-02
  5  2.63596656255032820e-02
  6  1.21980732005584347e-01
  7  1.28856458863398672e-02
  8  6.64010948954246380e-11
  9 -3.67703967014861924e-02
 10  1.90217711765887226e-01
 11 -1.45277178289254013e-03
 12  1.27310628185439700e-10
 13 -9.33758368794270766e-01
 14  1.07229364209231770e+00
 15  6.73374728236227939e-03
 16  3.67528253056997878e-10
 17 -2.42050054018336193e-03
 18 -1.29356631742988393e-11
 19  1.38950040370704707e-11
 20  2.31703530662567964e-02
 21  1.08638877031024070e-03
 22  1.23820351131145624e-02
 23  2.70622465912989073e-02
 24  6.07671611385591434e-02
 25  2.54189989887255094e-02
 26 -4.38597626099823668e-11
 27 -2.06668543706240770e-01
 28  2.43565644457028468e-01
 29  5.63844853163345053e-02
 30  2.61950704183444572e-11
 31  4.05219294767590554e-01
 32 -5.81835491914731828e-01
 33 -6.67601530388646641e-02
 34 -1.84517788548443917e-09
 35 -1.67313397439755249e-02
 36 -4.16683135478351785e-11
 37 -5.05562549289739760e-11
 38 -3.61254477282157913e-02
 39 -2.65101365811849822e-02
 40 -4.55970767366646393e-02
 41 -2.45067578777054207e-01
 42  4.12402467243599635e-01
 43  2.52911491520155830e-02
 44  5.20118161313387548e-02
 45 -1.60555128537410191e-01
 46  2.52911492072632298e-02
 47  5.20118181505804661e-02
 48 -1.60555127675870268e-01
 Sym= A
 Ene=  7.00639226354005884e-01
 Spin= Alpha
 Occup=  0.00000000000000000e+00
  1  9.09434475867260811e-03
  2  5.07877874943588159e-01
  3 -3.93158692524129050e-01
  4  4.08837356521491654e-02
  5  7.31958801293431521e-02
  6 -2.14930133029448897e-02
  7 -1.34412008959583162e-01
  8  1.49592784774027487e-10
  9 -2.62695210507926546e-01
 10  3.74228493261380152e-03
 11 -1.58189917893533399e-01
 12  2.36301795513739477e-10
 13 -3.21302800934911481e-01
 14 -5.40125144841917398e-02
 15 -6.12049557620833795e-01
 16  1.31652611555510557e-10
 17 -2.24762647481693348e-02
 18 -3.02285444939154324e-11
 19 -9.72663646132097826e-11
 20 -2.24991786754297277e-02
 21  3.01394106608277867e-02
 22 -6.58869856750748523e-02
 23 -1.29795885540203576e-01
 24 -8.34844335984121222e-02
 25 -1.95807549755355886e-01
 26 -1.46715795762419887e-10
 27  5.08589786956871959e-01
 28 -2.95948468856142066e-01
 29 -6.54906103440253018e-01
 30 -8.49822615056616826e-10
 31  1.64770253352273843e+00
 32  3.23750100036614918e-01
 33  6.88724240359345652e-01
 34  2.89383647600338634e-09
 35  2.64004729161325807e-02
 36  9.92976502888973100e-11
 37  1.68734959706852428e-10
 38  4.74924145280573515e-02
 39 -4.28426284103532243e-02
 40 -2.81933044987986089e-02
 41 -7.46865548782952859e-01
 42 -9.79651809105357291e-02
 43 -2.92427634241818196e-02
 44 -7.76631375380555711e-01
 45  6.51895408696386292e-02
 46 -2.92427632807583590e-02
 47 -7.76631375425822279e-01
 48  6.51895373699330483e-02
 Sym= A
 Ene=  7.37207234388169486e-01
 Spin= Alpha
 Occup=  0.00000000000000000e+00
  1  4.92092990642703596e-03
  2  1.87208843688107335e-01
  3  2.57426847975481987e-01