[Molden Format]
[Atoms] (AU)
H    1    1        -2.151754249461      -1.279953947948       0.000000000128
O    2    8        -0.381745656810      -1.234140788180       0.000000000016
C    3    6         0.499677440167       1.264136732308      -0.000000000017
H    4    1        -1.035290405632       2.625972492805      -0.000000000170
H    5    1         1.648025788734       1.594415926201       1.663432296449
H    6    1         1.648025788734       1.594415926201      -1.663432296459
[GTO]
  1 0
 s    3  1.00
       33.8650000000         0.0254938000
        5.0947900000         0.1903730000
        1.1587900000         0.8521610000
 s    1  1.00
        0.3258400000         1.0000000000
 s    1  1.00
        0.1027410000         1.0000000000

  2 0
 s    6  1.00
     8588.5000000000         0.0018951500
     1297.2300000000         0.0143859000
      299.2960000000         0.0707320000
       87.3771000000         0.2400010000
       25.6789000000         0.5947970000
        3.7400400000         0.2808020000
 s    3  1.00
       42.1175000000         0.1138890000
        9.6283700000         0.9208110000
        2.8533200000        -0.0032744700
 p    3  1.00
       42.1175000000         0.0365114000
        9.6283700000         0.2371530000
        2.8533200000         0.8197020000
 s    1  1.00
        0.9056610000         1.0000000000
 p    1  1.00
        0.9056610000         1.0000000000
 s    1  1.00
        0.2556110000         1.0000000000
 p    1  1.00
        0.2556110000         1.0000000000
 d    1  1.00
        1.2920000000         1.0000000000

  3 0
 s    6  1.00
     4563.2400000000         0.0019666500
      682.0240000000         0.0152306000
      154.9730000000         0.0761269000
       44.4553000000         0.2608010000
       13.0290000000         0.6164620000
        1.8277300000         0.2210060000
 s    3  1.00
       20.9642000000         0.1146600000
        4.8033100000         0.9199990000
        1.4593300000        -0.0030306800
 p    3  1.00
       20.9642000000         0.0402487000
        4.8033100000         0.2375940000
        1.4593300000         0.8158540000
 s    1  1.00
        0.4834560000         1.0000000000
 p    1  1.00
        0.4834560000         1.0000000000
 s    1  1.00
        0.1455850000         1.0000000000
 p    1  1.00
        0.1455850000         1.0000000000
 d    1  1.00
        0.6260000000         1.0000000000

  4 0
 s    3  1.00
       33.8650000000         0.0254938000
        5.0947900000         0.1903730000
        1.1587900000         0.8521610000
 s    1  1.00
        0.3258400000         1.0000000000
 s    1  1.00
        0.1027410000         1.0000000000

  5 0
 s    3  1.00
       33.8650000000         0.0254938000
        5.0947900000         0.1903730000
        1.1587900000         0.8521610000
 s    1  1.00
        0.3258400000         1.0000000000
 s    1  1.00
        0.1027410000         1.0000000000

  6 0
 s    3  1.00
       33.8650000000         0.0254938000
        5.0947900000         0.1903730000
        1.1587900000         0.8521610000
 s    1  1.00
        0.3258400000         1.0000000000
 s    1  1.00
        0.1027410000         1.0000000000

[5D]
[9G]

[MO]
 Sym= A
 Ene= -2.05393446553615213e+01
 Spin= Alpha
 Occup=  2.00000000000000000e+00
  1  2.12422293614239970e-04
  2 -4.05668049548260927e-05
  3  8.97966220838934638e-05
  4  5.51438372980364244e-01
  5  4.71659577823272835e-01
  6 -1.06179606293788672e-03
  7  1.42067852794380270e-03
  8  7.50349328637188624e-14
  9  5.66212209039640250e-03
 10  3.42869427108000592e-04
 11 -5.11314730000473282e-04
 12 -2.41274861689181469e-14
 13 -6.74380642143164195e-04
 14 -2.08304665668697386e-04
 15 -4.80243836981224145e-05
 16  1.33409451021082592e-14
 17  1.34719900916761869e-04
 18  1.32323080444252117e-14
 19  4.46972510002516255e-15
 20  3.69183277876819000e-05
 21 -9.31854473271391396e-05
 22 -3.32614786415467181e-06
 23 -2.93675223627882836e-05
 24 -4.76041984611349773e-06
 25 -4.18236786717990122e-05
 26 -1.70160109960737493e-15
 27  8.03903536092518594e-05
 28 -8.92371435436619146e-05
 29 -1.86585620835412230e-04
 30  5.03742013380215070e-15
 31  5.02307096819638692e-04
 32  1.94803249097584910e-05
 33 -1.89478316588831544e-04
 34 -8.38738800634786230e-15
 35 -4.83652150642260937e-05
 36 -1.74278151216227407e-15
 37 -3.83526354121380142e-15
 38 -7.43832353851916399e-05
 39  9.59533862688628233e-05
 40  1.60427667207059947e-05
 41 -5.31911023924321925e-05
 42 -2.22834622639600782e-05
 43  1.60466344333032849e-05
 44 -1.10660227008073093e-04
 45 -1.33670496104739550e-05
 46  1.60466344364657400e-05
 47 -1.10660227015048091e-04
 48 -1.33670496131107347e-05
 Sym= A
 Ene= -1.12649127195222576e+01
 Spin= Alpha
 Occup=  2.00000000000000000e+00
  1 -9.78560396569139895e-06
  2 -4.04870739713349918e-05
  3 -4.03881744152497467e-05
  4 -7.28562261799048377e-05
  5 -1.33500523880279698e-04
  6  3.10472020636339281e-05
  7  1.07567779318986495e-04
  8 -2.14595458373698089e-15
  9  3.23800869108120280e-04
 10  1.73431651243353177e-04
 11  5.16582941830229497e-04
 12 -4.40888102935799164e-15
 13  3.65974423079749541e-04
 14  2.65452048951199653e-06
 15  1.33871288393814505e-04
 16 -1.07938831483966879e-14
 17 -1.09572444621457274e-04
 18 -2.06896945322693204e-15
 19 -5.39394646569685277e-15
 20 -1.61484046009521484e-04
 21  1.06629481820762919e-04
 22  5.63438915214646285e-01
 23  4.66555246474059770e-01
 24 -4.43489735032309143e-04
 25 -8.72144436538927230e-04
 26  6.66740967991685807e-15
 27  4.13853112528216223e-03
 28  2.97232859511312956e-04
 29  6.76203708697782103e-04
 30 -3.09500688966402038e-14
 31 -1.31957406423572308e-03
 32 -9.78258407643688849e-05
 33 -1.81379079794352020e-04
 34  4.16368328703953239e-14
 35  1.42579563300392894e-04
 36  2.87169580107625444e-17
 37 -7.94400352790991526e-15
 38  1.97900591139817041e-04
 39 -1.53230748585173092e-04
 40  3.48109629699569923e-04
 41  9.97285568852025479e-05
 42  2.76785019411670066e-04
 43  3.43827983368326167e-04
 44  9.62686703888816081e-05
 45  2.89661344888279479e-04
 46  3.43827983367918453e-04
 47  9.62686704098925788e-05
 48  2.89661344909548923e-04
 Sym= A
 Ene= -1.36211321919056361e+00
 Spin= Alpha
 Occup=  2.00000000000000000e+00
  1  9.47575306445030685e-02
  2  3.27306929475553801e-02
  3  4.35519601215976840e-04
  4 -1.09726405678047478e-01
  5 -1.83682650141072601e-01
  6 -1.90263058591540989e-02
  7  2.84285892933382640e-02
  8  1.49077180721518543e-12
  9  5.20478169368634003e-01
 10 -4.70152971995489236e-02
 11  5.21477240388688243e-02
 12  3.58867823695499522e-12
 13  4.27149698711018322e-01
 14 -2.67841814403352273e-02
 15  4.00240567025753821e-02
 16  1.72122429156762458e-12
 17 -1.24121881524952224e-02
 18 -1.66752202324094156e-12
 19 -5.19763268883033369e-14
 20  5.50527411188491810e-03
 21  2.83895221697509897e-03
 22 -3.73814795610260542e-02
 23 -6.23228472966253569e-02
 24 -1.64581741806000791e-02
 25 -3.89344174935388615e-02
 26  4.24490304018476650e-13
 27  1.59069317488706341e-01
 28 -2.59216285119135276e-02
 29 -6.19497370174236506e-02
 30  6.45129782927966744e-13
 31  1.87095460695830690e-02
 32  4.52975497887750378e-03
 33  6.24523614933162642e-03
 34  1.13148379554672829e-12
 35 -1.15614913565917875e-02
 36  3.59654526212865866e-14
 37 -5.30817794233695572e-13
 38 -1.36593320756886391e-02
 39  1.21876474157965355e-02
 40  1.62552772865305235e-02
 41  1.91913816250349201e-02
 42  1.45797507131070064e-03
 43  1.52885164392007750e-02
 44  1.73026933640880454e-02
 45 -2.75827928143761170e-03
 46  1.52885164391095840e-02
 47  1.73026933650390069e-02
 48 -2.75827928069627415e-03
 Sym= A
 Ene= -9.28805691742650041e-01
 Spin= Alpha
 Occup=  2.00000000000000000e+00
  1  7.81452195321517412e-02
  2  6.72190548458589804e-02
  3  1.58298251171224424e-02
  4 -3.04041003225109414e-02
  5 -5.11385473593133077e-02
  6 -6.30515466293177090e-02
  7 -6.42679253984000387e-02
  8  3.90976579453874984e-12
  9  1.46697553911175671e-01
 10 -1.13001021020568068e-01
 11 -1.07694669110749736e-01
 12  7.16760082276196586e-12
 13  1.68014083702067385e-01
 14 -5.65771338745803820e-02
 15 -5.62636144869703911e-02
 16  3.27840012082081245e-12
 17 -1.92756912230909825e-04
 18 -1.25171899754972227e-12
 19  2.64786239809189361e-13
 20  1.91241314613709093e-02
 21 -4.28234228360926776e-03
 22  9.48192272171541201e-02
 23  1.60862489938487285e-01
 24 -1.26471208848658052e-02
 25 -2.22730105260357560e-02
 26  3.95816712739360810e-12
 27 -4.28592470885598598e-01
 28 -2.12599124485587931e-02
 29 -3.97821164028373461e-02
 30  7.08309799701822840e-12
 31 -3.19842208936854888e-01
 32 -3.94590065640723631e-03
 33 -3.09087182551060283e-02
 34  2.67691424582494619e-12
 35 -5.24316405056360259e-03
 36 -8.37678440745700040e-13
 37  1.81557503406426513e-12
 38 -6.93243083375452880e-03
 39  7.26003042607148170e-03
 40 -8.55159519988665379e-02
 41 -8.14005427271192461e-02
 42  3.14894803677995272e-03
 43 -8.70428712277580702e-02
 44 -8.50685337961086668e-02
 45  1.62177864488000090e-03
 46 -8.70428712321818371e-02
 47 -8.50685337989131596e-02
 48  1.62177864414314588e-03
 Sym= A
 Ene= -6.97033217299478536e-01
 Spin= Alpha
 Occup=  2.00000000000000000e+00
  1  1.38776642961998514e-01
  2  1.64623091147113487e-01
  3  4.10300093584576933e-02
  4  2.23000745765837491e-02
  5  3.77016008529863084e-02
  6 -1.88745617239800406e-01
  7 -2.97458443150863359e-02
  8  4.43080467471155745e-12
  9 -1.16809817253541254e-01
 10 -3.06504450444098131e-01
 11 -5.02649619972507997e-02
 12  7.44479200238522959e-12
 13 -1.24879257263504073e-01
 14 -2.08129478289075798e-01
 15 -8.88442076163909085e-03
 16  3.99800787094506394e-12
 17 -8.77604601722130340e-03
 18 -2.19179616947270950e-12
 19 -9.49172110267099134e-14
 20  2.04738627960175078e-02
 21 -1.20513443518960577e-02
 22 -1.22490728413592702e-02
 23 -2.02367294096788553e-02
 24 -4.46090158740273593e-02
 25  1.10997319403314268e-01
 26 -8.39428808581399455e-12
 27  4.86829715060517823e-02
 28 -7.61212593244556257e-02
 29  2.03990672331613415e-01
 30 -1.56159599140615057e-11
 31  6.17071025698525538e-02
 32 -4.42442457122404625e-02
 33  8.77899885277364650e-02
 34 -6.61583635097606759e-12
 35  3.23398123293873636e-03
 36  3.43394318480462393e-13
 37 -1.91354186185668795e-12
 38  3.00654624232183955e-02
 39 -2.05582169605593862e-02
 40  9.84856760522008490e-02
 41  1.23252974005168103e-01
 42  4.39246703414171782e-02
 43  9.37973451609932021e-03
 44  1.12309149699089186e-02
 45 -2.68171821524425258e-03
 46  9.37973452489427456e-03
 47  1.12309149804338398e-02
 48 -2.68171821303291036e-03
 Sym= A
 Ene= -6.20548070743516589e-01
 Spin= Alpha
 Occup=  2.00000000000000000e+00
  1  1.30302795463277388e-11
  2  1.60923609507368504e-11
  3  5.44639160160453883e-12
  4  2.51287798078494995e-12
  5  4.25590888485788410e-12
  6 -7.66578125169182709e-12
  7 -4.00014499605735874e-12
  8  1.55764029461447517e-01
  9 -1.30728493351675579e-11
 10 -1.26705732494611367e-11
 11 -6.88954492414350916e-12
 12  2.44396769110131307e-01
 13 -1.52990640989170146e-11
 14 -7.71142307995353882e-12
 15 -2.26860869499689866e-12
 16  2.11585226409831656e-01
 17 -5.96963884574863712e-14
 18 -4.61547897250831878e-03
 19  1.39720734307858200e-02
 20  1.91865208616637251e-12
 21  2.24020238123734394e-13
 22 -2.62804621814494155e-12
 23 -4.43858144683062505e-12
 24  1.64850216810563666e-11
 25  5.41861759455197767e-12
 26  1.61728739319271397e-01
 27  1.16742691902427254e-11
 28  3.02824987308270011e-11
 29  9.67374834751066892e-12
 30  2.83861256724219357e-01
 31  1.31507166267752496e-11
 32  1.59071644745267804e-11
 33  6.69863101619705414e-12
 34  1.72978760637725215e-01
 35  4.91583379905180529e-12
 36  2.69993341002047263e-02
 37 -2.80442409509584940e-03
 38  2.81558760681366316e-12
 39  1.53764658341118410e-12
 40 -1.25636675542273313e-11
 41 -1.63045948270434948e-11
 42 -6.93227419912290088e-12
 43  1.09234513541434985e-01
 44  1.37427377343943280e-01
 45  5.13597942251110551e-02
 46 -1.09234513517010190e-01
 47 -1.37427377310736676e-01
 48 -5.13597942136174157e-02
 Sym= A
 Ene= -5.97947430920600320e-01
 Spin= Alpha
 Occup=  2.00000000000000000e+00
  1  3.01996624746320649e-02
  2  2.91875708741537107e-02
  3  3.68252785376489977e-02
  4 -1.37237370479008688e-02
  5 -2.33642821096554133e-02
  6 -4.45101748156366984e-03
  7 -1.78010399381221623e-01
  8 -8.41121139752432079e-12
  9  7.21221385591667569e-02
 10 -8.38669733119312526e-03
 11 -2.75278792438789166e-01
 12 -1.31360690554249704e-11
 13  1.02705641823614968e-01
 14 -3.57764291973411029e-03
 15 -2.37985761086405928e-01
 16 -1.15022271221509875e-11
 17  6.30804578648268971e-03
 18 -2.61493192550699138e-13
 19 -1.42070101342983701e-12
 20  1.90445579547139227e-02
 21  8.98686710146685136e-03
 22 -1.17989266635391008e-03
 23 -1.79786075192684119e-03
 24  1.51221449619043435e-01
 25  6.69352921506424364e-02
 26 -1.56342907370321527e-11
 27  4.10707382627777118e-03
 28  2.66047356450135275e-01
 29  1.16173208846351586e-01
 30 -2.68562880267886328e-11
 31  5.09391047136221464e-02
 32  1.67904073740790777e-01
 33  4.59494639255208226e-02
 34 -1.84218612586661834e-11
 35  3.81166289359427396e-02
 36 -4.23576834889037405e-12
 37  1.21244680961751783e-12
 38  1.93410246642841226e-02
 39 -6.29460601546515727e-03
 40 -5.83680641146131080e-02
 41 -7.84822356341063343e-02
 42 -4.16682286209739336e-02
 43  8.56759164985268218e-02
 44  1.05153282680101740e-01
 45  4.18886926156114142e-02
 46  8.56759165215225937e-02
 47  1.05153282708087381e-01
 48  4.18886926270623516e-02
 Sym= A
 Ene= -4.97429359795341419e-01
 Spin= Alpha
 Occup=  2.00000000000000000e+00
  1  8.14331021558970108e-02
  2  1.15042339406617372e-01
  3  3.23813503998233929e-02
  4  2.51538127618327507e-02
  5  4.26900977973009854e-02
  6 -1.25733998475058256e-01
  7  1.50344016619771148e-01
  8 -1.34306757338872873e-11
  9 -1.31795438289191158e-01
 10 -1.94544161855653458e-01
 11  2.23831787812697858e-01
 12 -2.02965021634145260e-11
 13 -1.84280271792730488e-01
 14 -1.85836624327571392e-01
 15  2.55218073961592129e-01
 16 -2.27169249123609918e-11
 17 -1.21819512878406817e-02
 18 -8.46088417426685280e-13
 19 -5.67111705903136643e-13
 20  4.79998232437163410e-03
 21 -5.82452116289114679e-03
 22 -5.96389588281058362e-03
 23 -1.02975863599431821e-02
 24  1.01306337131690086e-01
 25 -9.14328531240164305e-02
 26 -7.32407797604528454e-12
 27  3.17266593114965412e-02
 28  1.80145133416798303e-01
 29 -1.54987077182240307e-01
 30 -1.24218309249801706e-11
 31 -2.80886344825245840e-02
 32  1.09567669325931122e-01
 33 -6.05374122472202569e-02
 34 -9.93989612840806558e-12
 35  1.52573141190374111e-02
 36 -4.71592546338482545e-12
 37  2.73477475474376286e-12
 38  8.25527313594896783e-03
 39  4.22444352203777060e-02
 40 -1.33648446032902796e-01
 41 -2.13809722153076670e-01
 42 -1.07423938939350178e-01
 43  4.90395819415235870e-02
 44  8.87468683918986312e-02
 45  3.12083896056572184e-02
 46  4.90395819563506086e-02
 47  8.87468684138890962e-02
 48  3.12083896210997580e-02
 Sym= A
 Ene= -4.42566800373768165e-01
 Spin= Alpha
 Occup=  2.00000000000000000e+00
  1  3.97959020338040093e-12
  2  6.93581303501389357e-12
  3  1.82918784286112412e-12
  4  9.54697150327976640e-13
  5  1.61821665550961058e-12
  6  9.96887916996074680e-12
  7  7.83155810167579514e-12
  8  2.47717562922272871e-01
  9 -5.04295888902051015e-12
 10  1.47047868673255699e-11
 11  1.16433464432408318e-11
 12  3.71374756664317962e-01
 13 -7.11900937505616227e-12
 14  1.90658951300382018e-11
 15  1.41778990891266998e-11
 16  4.33076784241545054e-01
 17  7.88492751993552510e-13
 18 -1.33141291875050818e-02
 19  7.82661143164575454e-03
 20 -5.18514159560112819e-13
 21  3.72052215424911736e-13
 22  5.81534820298656996e-13
 23  9.95033916373344596e-13
 24  1.68238426662137286e-12
 25 -6.27468064486047528e-12
 26 -1.04863673637282703e-01
 27 -2.20431659037068073e-12
 28  3.00714314560579510e-12
 29 -1.06805534468706886e-11
 30 -1.86992845064311131e-01
 31 -1.17351683925903671e-11
 32  2.69968075672366581e-12
 33 -5.81375117318649881e-12
 34 -1.02998063691393707e-01
 35  1.59483483277295113e-13
 36 -3.60105851834706600e-02
 37 -3.41929347549885243e-02
 38 -9.83318895059204223e-13
 39 -8.37786329026257715e-14
 40 -4.11094986177418242e-13
 41  2.43849558601016980e-12
 42 -5.57343754481465226e-12
 43 -9.50084949898737929e-02
 44 -1.67197069775091273e-01
 45 -8.53113021276684369e-02
 46  9.50084949865896145e-02
 47  1.67197069771415852e-01
 48  8.53113021270105742e-02
 Sym= A
 Ene=  1.52140855696518779e-01
 Spin= Alpha
 Occup=  0.00000000000000000e+00
  1  3.16329494922112514e-02
  2 -8.02020921650072882e-02
  3  9.42015906336264197e-01
  4  2.02672590403932609e-02
  5  3.38035942362357664e-02
  6  5.54316119368885585e-02
  7  1.28083658200461581e-02
  8 -2.99424211553517283e-12
  9 -8.22292695861413930e-02
 10  8.10540568780910714e-02
 11 -9.33043544330536094e-04
 12 -3.58410892110916368e-12
 13 -3.99228292204403923e-01
 14  1.88213735160973922e-01
 15  1.49118540886381129e-01
 16 -1.39794373993362697e-11
 17  1.49004886042736814e-03
 18  5.54759580287389475e-13
 19 -2.94525038038728759e-13
 20 -2.75539960659791812e-03
 21  3.14898651208419655e-03
 22  2.74818844069182056e-02
 23  4.30593298221414039e-02
 24  1.25977767294594058e-02
 25 -6.69825804511753886e-02
 26 -1.21833446109498311e-12
 27 -8.74307047326893655e-03
 28  1.02476333290646010e-02
 29 -7.25104124458889748e-02
 30 -8.17401701880271503e-15
 31 -1.59881401135476797e+00
 32  1.94264268977723503e-01
 33 -3.31178398864350465e-01
 34  8.84792239475018505e-12
 35  5.37715356181370577e-03
 36  5.32948786827452253e-13
 37  2.14018863395337711e-12
 38  3.71338530131221740e-03
 39 -8.70254811203150305e-03
 40  5.12339809482744834e-03
 41  8.26085241876290018e-03
 42  1.07187786828419651e+00
 43  2.50075024345004088e-04
 44  3.02985830248591256e-02
 45  4.12984199026705412e-01
 46  2.50075021170435841e-04
 47  3.02985830408537549e-02
 48  4.12984198962783267e-01
 Sym= A
 Ene=  1.87264599453830949e-01
 Spin= Alpha
 Occup=  0.00000000000000000e+00
  1  3.74332975624004916e-02
  2 -4.89245594423636798e-02
  3  1.08043051286111558e+00
  4  2.10124866931999735e-02
  5  3.45780873526030444e-02
  6  4.60701519922979488e-02
  7 -2.29631074400483727e-02
  8 -3.31845813848763438e-12
  9 -6.80819734883711808e-02
 10  6.33278903139772309e-02
 11 -5.09778456816498207e-02
 12 -4.76700319843037512e-12
 13 -5.57131864759612516e-01
 14  1.53769238808784403e-01
 15 -4.87472502483886488e-02
 16 -1.09140127491080818e-11
 17  8.12050783511346005e-05
 18  2.88066012016363615e-13
 19 -3.70687421730186983e-13
 20 -1.68558740738233631e-03
 21  7.06087657869053451e-03
 22 -3.72731602382203181e-02
 23 -6.13337734035058063e-02
 24  4.11817482963900555e-02
 25 -1.62448488663577504e-03
 26 -1.23596272105785943e-12
 27  8.72158986156784249e-02
 28  2.39591835042418932e-02
 29 -2.18867150666305597e-02
 30 -1.78412840057262656e-13
 31  1.42279659351635956e+00
 32  4.18063499933840399e-01
 33  3.43000523811873084e-02
 34 -1.58000834638016840e-11
 35  3.21455721544962889e-03
 36 -5.81449005696704768e-13
 37  5.40082735478453202e-13
 38  1.86395949163237814e-03
 39 -6.51975910851665570e-03
 40 -5.61412614281697059e-03
 41  7.34858617086629473e-02
 42 -2.96001489044838362e-01
 43 -1.41523242685043984e-02
 44  5.56241393116860064e-02
 45 -1.04098654479084263e+00
 46 -1.41523242678135847e-02
 47  5.56241393081378099e-02
 48 -1.04098654482420394e+00
 Sym= A
 Ene=  2.32214401498887973e-01
 Spin= Alpha
 Occup=  0.00000000000000000e+00
  1  4.53191896986502793e-05
  2  1.01077892455384732e-01
  3 -6.46406905008773180e-01
  4 -1.42936123323872677e-02
  5 -2.35693243899229229e-02
  6 -2.59973840606692458e-02
  7  2.04702164394833276e-02
  8 -5.49386751369507209e-12
  9  4.88586643379304991e-02
 10 -2.53041845014633296e-02
 11  3.13985975609332724e-02
 12 -2.89425514804486639e-12
 13  3.84064726454724670e-01
 14 -1.42940672606144958e-01
 15  8.55480021606637026e-02
 16 -4.52329822903108081e-11
 17 -4.43793399401467767e-03
 18  2.01641871602764589e-13
 19  3.25815416313268713e-12
 20  7.77592217942067385e-03
 21  2.33587763642921714e-03
 22  5.58555663861279566e-03
 23  9.77403561178347147e-03
 24  1.22747458499508605e-01
 25 -2.51153805305782823e-02
 26  6.11330049082869920e-11
 27 -2.35068886597125798e-02
 28  1.25809242307152569e-01
 29 -9.83758719859809116e-03
 30  5.89260584771267304e-11
 31 -1.01140247775795167e-01
 32  1.01608518242106771e+00
 33 -2.26903397128706941e-01
 34  5.24517096422982831e-10
 35 -7.63304889363008218e-03
 36 -1.42434889295432743e-12
 37 -9.62441064344954356e-13
 38 -6.22262129085550224e-03
 39 -4.80932365622562820e-04
 40  1.91504062714037276e-02
 41 -1.77197084717869324e-01
 42  2.19267871313693874e+00
 43 -6.82739527074091232e-03
 44  4.16821826390901679e-02
 45 -9.86455994718798412e-01
 46 -6.82739526273792863e-03
 47  4.16821825318935690e-02
 48 -9.86455993127805630e-01
 Sym= A
 Ene=  2.34621232532033291e-01
 Spin= Alpha
 Occup=  0.00000000000000000e+00
  1  2.32400904076612846e-13
  2  4.93480152574665709e-11
  3 -3.12222719900390189e-10
  4 -6.59290037927778849e-12
  5 -1.08834894221865319e-11
  6 -1.33995106676998432e-11
  7  9.79198232914368916e-12
  8  1.73480255469087193e-02
  9  2.25509871193407818e-11
 10 -1.40035487546097404e-11
 11  1.51563293165901669e-11
 12  1.41897682268608757e-02
 13  1.80229092067163421e-10
 14 -6.83947516677552159e-11
 15  4.08239544599786619e-11
 16  1.13522996270351798e-01
 17 -1.86290826514889929e-12
 18 -8.22479778595781690e-04
 19 -7.28157566524918753e-03
 20  3.78787019111870293e-12
 21  1.11922450474200019e-12
 22  2.77856817415544910e-12
 23  4.67004560023021043e-12
 24  5.50831047441135979e-11
 25 -1.35099908690761161e-11
 26 -1.35850471080017687e-01
 27 -8.84142759005612788e-12
 28  5.58467716516020118e-11
 29 -6.74296382618955192e-12
 30 -1.29606779535711619e-01
 31 -4.66893190775863332e-11
 32  4.47446080187319239e-10
 33 -1.07802761509234735e-10
 34 -1.15588052014837595e+00
 35 -3.46913161175174678e-12
 36  6.60976710344077928e-03
 37  1.10043166820603978e-04
 38 -2.23803614529671790e-12
 39 -1.37753057658646094e-12
 40  1.25772656178746445e-11
 41 -7.47865935846192542e-11
 42  9.51551393235661180e-10
 43  1.41635224089849826e-02
 44 -1.22381204895656126e-01
 45  1.92986678283668134e+00
 46 -1.41635224131205079e-02
 47  1.22381204935838483e-01
 48 -1.92986678369084719e+00
 Sym= A
 Ene=  3.47572386127879052e-01
 Spin= Alpha
 Occup=  0.00000000000000000e+00
  1  5.34028840548070316e-03
  2  1.24121590198078197e-01
  3 -9.80828020856562621e-01
  4  2.42649563052631211e-02
  5  3.94865193991738861e-02
  6 -6.88893770156608493e-02
  7 -1.08610206775553997e-01
  8  6.50474712952258706e-12
  9 -6.29575299215923978e-02
 10 -7.79644560798298941e-02
 11 -1.31238146111794490e-01
 12  7.53948863247994733e-12
 13 -1.05564910456656236e+00
 14 -3.80847604906488391e-01
 15 -7.14343149306294611e-01
 16  3.20641994943152153e-11
 17  1.82809661050687029e-03
 18  2.14571063824817165e-14
 19 -2.45735838632927389e-13
 20  7.18990145650406920e-03
 21  4.28819287761887441e-04
 22 -1.34561811511943932e-02
 23 -2.20778935906706247e-02
 24 -1.72308108291612250e-02
 25 -8.93551778357465493e-02
 26  2.62224920596909605e-13
 27  8.81786941094594469e-03
 28 -8.11526608805866224e-03
 29 -8.72044196999238602e-02
 30  3.09015139865476129e-12
 31  6.64848846291422824e-01
 32 -5.36455034911656692e-01
 33 -1.78279025616155717e+00
 34 -1.71594249226414419e-11
 35  8.67019967915987066e-03
 36  2.44371918419753668e-12
 37 -3.98096242386000720e-13
 38  1.41679968040998409e-02
 39 -9.85370204278060435e-03
 40  1.24758721350107342e-02
 41  1.66537999160610045e-01
 42  5.49417442870195338e-01
 43  1.35838109798713403e-02
 44  2.05442052733367519e-01
 45 -1.11358251527048091e-02
 46  1.35838109721173241e-02
 47  2.05442052645506940e-01
 48 -1.11358251098018293e-02
 Sym= A
 Ene=  4.67073611617486173e-01
 Spin= Alpha
 Occup=  0.00000000000000000e+00
  1  4.28480905202238416e-02
  2  3.99539030503793080e-01
  3 -4.66051855520315736e-02
  4  8.42223855339951054e-03
  5  1.44054709289809339e-02
  6 -1.59935021519180924e-02
  7  3.39824386523058172e-02
  8  1.70592738421787918e-10
  9 -3.73602744020641239e-02
 10  1.04650417158117805e-03
 11  5.02202320714856473e-02
 12  1.98023383172866996e-10
 13 -2.22003531932237042e-01
 14 -1.25207926557110300e-01
 15  1.06040239011045090e-01
 16  9.56289197134863045e-10
 17 -9.42771361078625046e-03
 18  2.70364156410018985e-12
 19 -1.70417072922930679e-11
 20  1.43651685526839032e-02
 21  3.88729650106332770e-03
 22  3.96978807151264317e-04
 23  8.09638799490540288e-05
 24  2.92402351953651232e-02
 25 -1.18398566290374742e-02
 26 -7.08877626737214328e-11
 27  4.42535163358483835e-03
 28 -7.63526022911079072e-03
 29 -2.72643090088291740e-02
 30  6.67158689404701022e-11
 31  9.73391661838121647e-03
 32  1.55237582593997869e+00
 33 -5.52921323104155094e-01
 34 -4.53915488529688105e-09
 35 -3.15917510404687130e-02
 36  5.65943684501153416e-11
 37 -7.44202895922724261e-11
 38  1.36888682730845618e-02
 39  1.24764928727399927e-03
 40  6.01536477445945433e-02
 41  1.28754709560380731e+00
 42 -7.94634617677252575e-02
 43 -2.89857641378203877e-02
 44 -6.46359885415370039e-01
 45  3.84575814536615920e-02
 46 -2.89857643768662715e-02
 47 -6.46359891091916605e-01
 48  3.84575812317744237e-02
 Sym= A
 Ene=  4.70380493391978627e-01
 Spin= Alpha
 Occup=  0.00000000000000000e+00
  1 -1.07802259957309743e-10
  2 -1.10080803760598256e-09
  3  2.62215006652244398e-10
  4 -2.32148124915078011e-11
  5 -3.94913451441138152e-11
  6  4.32742540057624338e-11
  7 -7.52383452849031409e-11
  8  7.02669542697232502e-02
  9  9.65010979112057576e-11
 10  2.94845587832034961e-12
 11 -1.12191794483101903e-10
 12  8.19477203669762011e-02
 13  6.85346866063918370e-10
 14  3.03233712879019679e-10
 15 -1.99612298912299480e-10
 16  3.95786476274561816e-01
 17  2.39996116513027657e-11
 18  1.27797566707810303e-03
 19 -6.79799030765452107e-03
 20 -3.66606554141890584e-11
 21 -9.26722869450113951e-12
 22  1.44185791778328465e-12
 23  3.82354087627434502e-12
 24 -7.42457501728965852e-11
 25  3.23731293508378037e-11
 26 -2.87497381241426445e-02
 27 -1.03747808954945953e-11
 28  1.25225003977380567e-11
 29  7.07055288883678967e-11
 30  2.63995752074813392e-02
 31 -1.14942319551225580e-10
 32 -3.87048111616383750e-09
 33  1.52843259121175634e-09
 34 -1.86586953280439793e+00
 35  8.26395026899424262e-11
 36  2.23144174889317974e-02
 37 -3.02488565202416321e-02
 38 -3.66110332154778728e-11
 39 -1.80846825145394852e-12
 40 -1.43311209904392611e-10
 41 -3.23447765186030134e-09
 42  6.88847728858021924e-11
 43  4.58183794919087353e-02
 44  1.13884591478718700e+00
 45  6.99930735772169021e-02
 46 -4.58183793431033437e-02
 47 -1.13884591147267344e+00
 48 -6.99930737687400883e-02
 Sym= A
 Ene=  6.21517840681671263e-01
 Spin= Alpha
 Occup=  0.00000000000000000e+00
  1  8.75134818310439461e-02
  2  2.17077184162755676e+00
  3 -1.01143466311245489e+00
  4  1.20670447460197502e-02
  5  2.04051476080176382e-02
  6  1.48049240083778039e-01
  7  7.07937400387592414e-03
  8 -4.26220152650435419e-12
  9 -2.36979599043611877e-02
 10  2.36444179857229514e-01
 11 -2.28902110840837232e-02
 12 -7.64723652240881235e-12
 13 -8.65772859395204875e-01
 14  1.19779848753107587e+00
 15  6.27404816255049402e-02
 16 -5.23330964067453275e-11
 17  1.54465571901460071e-03
 18 -1.85770347130471969e-12
 19 -7.54425005539821614e-13
 20  1.80940849865205214e-02
 21 -3.09795251757461311e-03
 22  1.59805214659407280e-02
 23  3.45482159568736985e-02
 24  3.88776879791630642e-02
 25  4.63643329224267681e-02
 26 -7.15392588918062344e-12
 27 -2.36699490117959266e-01
 28  2.19496434071176666e-01
 29  1.23750817996113288e-01
 30 -2.62859577854213100e-11
 31  2.48545753536459885e-01
 32 -1.23851718838123781e+00
 33  1.74401728429506159e-01
 34 -5.33047078699055987e-11
 35 -2.06391396403617852e-02
 36  8.13409771972166493e-13
 37  1.65005698991513294e-12
 38 -3.23082871944891103e-02
 39 -2.57193721949220584e-02
 40  9.62177814833712307e-03
 41 -2.80499030715383513e-01
 42 -5.44883348910519594e-01
 43 -2.24135908689230938e-03
 44  1.44566584480334187e-01
 45  3.16391315709692367e-01
 46 -2.24135909609655959e-03
 47  1.44566584357122302e-01
 48  3.16391315765185699e-01
 Sym= A
 Ene=  6.98991155780728568e-01
 Spin= Alpha
 Occup=  0.00000000000000000e+00
  1  1.57707076240766117e-02
  2  6.04510958049902847e-01
  3 -4.25586078184092553e-01
  4  4.07979473721242561e-02
  5  7.31331390072571808e-02
  6 -1.09375090922880711e-02
  7 -1.36693577011860329e-01
  8  6.41993738986074147e-12
  9 -2.63596202720746353e-01
 10  2.18580434298029334e-02
 11 -1.66689321413244634e-01
 12  1.05248413066402757e-11
 13 -3.04022663847800190e-01
 14  2.78386856903379866e-02
 15 -5.83383173503246866e-01
 16  1.04954773171017646e-11
 17 -2.34145684969741218e-02
 18 -1.83314051872135453e-12
 19 -2.54042094435455446e-12
 20 -2.15833001044865962e-02
 21  3.13321001308971905e-02
 22 -6.44205081123524065e-02
 23 -1.26865195657152624e-01
 24 -8.09103128287899653e-02
 25 -2.00430836903109477e-01
 26 -3.85364483379557754e-13
 27  5.01792906760019419e-01
 28 -2.70381816256657803e-01
 29 -6.75923755383629699e-01
 30 -1.83256188002189901e-13
 31  1.54510832109280183e+00
 32  1.13432810343550766e-01
 33  8.07376213272420151e-01
 34 -1.38109974845423977e-10
 35  3.30069040818186249e-02
 36 -8.15081903948505944e-13
 37  5.08832646156642809e-12
 38  4.15004501641233481e-02
 39 -4.45630191398920447e-02
 40 -3.14999860507705690e-02
 41 -8.25129304782342254e-01
 42  9.43703411436475070e-03
 43 -2.59243997027726637e-02
 44 -6.76956798840882779e-01
 45  3.78149463483356402e-03
 46 -2.59243997032533036e-02
 47 -6.76956798945996696e-01
 48  3.78149454536569340e-03
 Sym= A
 Ene=  7.37529241985129369e-01
 Spin= Alpha
 Occup=  0.00000000000000000e+00
  1  1.85646332071790670e-04
  2  1.92924540373088982e-01
  3  2.61810319656838486e-01