[Molden Format]
[Atoms] (AU)
O    1    8         0.000000000000      -0.000000000000      -3.137653640958
C    2    6        -0.000000000000       0.000000000000      -1.014438886597
S    3   16         0.000000000000      -0.000000000000       1.950445074137
[GTO]
  1 0
 s    6  1.00
     8588.5000000000         0.0018951500
     1297.2300000000         0.0143859000
      299.2960000000         0.0707320000
       87.3771000000         0.2400010000
       25.6789000000         0.5947970000
        3.7400400000         0.2808020000
 s    3  1.00
       42.1175000000         0.1138890000
        9.6283700000         0.9208110000
        2.8533200000        -0.0032744700
 p    3  1.00
       42.1175000000         0.0365114000
        9.6283700000         0.2371530000
        2.8533200000         0.8197020000
 s    1  1.00
        0.9056610000         1.0000000000
 p    1  1.00
        0.9056610000         1.0000000000
 s    1  1.00
        0.2556110000         1.0000000000
 p    1  1.00
        0.2556110000         1.0000000000
 d    1  1.00
        1.2920000000         1.0000000000

  2 0
 s    6  1.00
     4563.2400000000         0.0019666500
      682.0240000000         0.0152306000
      154.9730000000         0.0761269000
       44.4553000000         0.2608010000
       13.0290000000         0.6164620000
        1.8277300000         0.2210060000
 s    3  1.00
       20.9642000000         0.1146600000
        4.8033100000         0.9199990000
        1.4593300000        -0.0030306800
 p    3  1.00
       20.9642000000         0.0402487000
        4.8033100000         0.2375940000
        1.4593300000         0.8158540000
 s    1  1.00
        0.4834560000         1.0000000000
 p    1  1.00
        0.4834560000         1.0000000000
 s    1  1.00
        0.1455850000         1.0000000000
 p    1  1.00
        0.1455850000         1.0000000000
 d    1  1.00
        0.6260000000         1.0000000000

  3 0
 s    6  1.00
    93413.4000000000         0.0007430000
    13961.7000000000         0.0057930000
     3169.9100000000         0.0299540000
      902.4560000000         0.1190280000
      297.1580000000         0.3684320000
      108.7020000000         0.5772990000
 s    3  1.00
      108.7020000000         0.1431860000
       43.1553000000         0.6244650000
       18.1079000000         0.2833660000
 s    1  1.00
        5.5600900000         1.0000000000
 s    1  1.00
        2.1318300000         1.0000000000
 s    1  1.00
        0.4204030000         1.0000000000
 s    1  1.00
        0.1360450000         1.0000000000
 p    4  1.00
      495.0400000000         0.0083090000
      117.2210000000         0.0640240000
       37.7749000000         0.2776140000
       14.0584000000         0.7450760000
 p    2  1.00
        5.5657400000         0.6137120000
        2.2629700000         0.4438180000
 p    1  1.00
        0.8079940000         1.0000000000
 p    1  1.00
        0.2774600000         1.0000000000
 p    1  1.00
        0.0771410000         1.0000000000
 d    1  1.00
        0.6500000000         1.0000000000

[5D]
[9G]

[MO]
 Sym= A
 Ene= -9.19856935317212816e+01
 Spin= Alpha
 Occup=  2.00000000000000000e+00
  1  9.92697776323327955e-07
  2 -4.71653906031647469e-06
  3  4.03262930395452406e-16
  4 -5.08136171566768485e-16
  5  1.93936740319560112e-06
  6  3.45588977634467167e-05
  7 -1.26491611756510268e-15
  8  2.19818859069669610e-16
  9 -6.64200202393373771e-07
 10 -1.40892822915572482e-04
 11  1.19084533335466587e-16
 12 -3.15009442234612515e-16
 13 -5.08247984087175234e-05
 14 -2.37303524369153636e-06
 15 -4.81543756273504353e-16
 16 -2.85365931512974162e-16
 17 -2.20361492864848019e-17
 18 -1.48708878825300628e-16
 19 -3.79552830522575884e-06
 20  1.34080153982391762e-05
 21  2.70816734978585313e-16
 22  3.47845185443914959e-16
 23  2.30435804966605632e-05
 24 -1.19967260953496444e-05
 25 -4.25522679311962885e-16
 26 -1.53448387230732693e-17
 27 -1.05973026715064795e-04
 28  8.13635391403916194e-05
 29  1.92014550345087161e-16
 30 -1.93667769185668453e-17
 31 -7.55957925200516974e-05
 32 -4.57665160895216180e-05
 33 -1.20993879064034040e-15
 34 -1.27773514812761973e-15
 35 -6.51837689290632785e-16
 36 -8.97446375382782138e-17
 37  4.11055755142979429e-01
 38  6.54977842382728492e-01
 39  1.22333278176538149e-02
 40 -1.39904175541668554e-03
 41  4.15986133778177526e-04
 42 -1.37623905237686128e-04
 43  3.87189794243367045e-16
 44 -8.36807857919440573e-16
 45 -1.23415913598690579e-04
 46 -3.43306273421936003e-16
 47  1.14222604407016940e-15
 48  4.98060711923060419e-05
 49 -5.25173470567500561e-17
 50 -5.91695698862901493e-16
 51 -2.49109028262236731e-05
 52 -1.44612248377191225e-16
 53  4.04233476653468855e-16
 54 -6.62375641164776206e-05
 55  7.36950188559058032e-16
 56  4.39845967117268083e-16
 57  3.75985829020078930e-05
 58  4.08705941163421826e-05
 59 -5.74269363403695957e-16
 60 -4.33196672161587128e-16
 61 -2.07391353305584319e-16
 62  7.97750336590621791e-17
 Sym= A
 Ene= -2.06639160601318359e+01
 Spin= Alpha
 Occup=  2.00000000000000000e+00
  1  5.51450588191660818e-01
  2  4.71678759995239949e-01
  3 -9.74438872071859272e-16
  4  1.07248004516461391e-16
  5  1.91499438211057077e-03
  6  5.58555376681715322e-03
  7  3.59002538708698351e-16
  8  3.87318423944580617e-16
  9 -5.68765270250944067e-04
 10 -1.29403555426608574e-03
 11 -2.06771360991894086e-16
 12  6.76542318727399402e-17
 13 -9.02808545381355345e-05
 14  1.46491524911334970e-04
 15  4.95502413911238361e-16
 16 -1.23186961286198723e-16
 17 -9.30217387066569481e-16
 18 -2.41860962481903209e-16
 19  1.14911333315545159e-05
 20 -9.03099862531835920e-05
 21  6.00943993695965938e-18
 22  2.98174263367494899e-16
 23 -1.33094647530640297e-04
 24  4.63170094321423988e-04
 25 -2.95362408983664240e-16
 26 -7.56323055142085952e-16
 27 -3.41073942232723924e-04
 28  2.15100820331540676e-04
 29 -1.60158378257504517e-16
 30  6.98380224160712423e-16
 31 -8.69689327294781217e-04
 32  8.86728946334151271e-05
 33 -4.83162971794158622e-16
 34  1.01036948670333290e-15
 35 -1.32564354742607384e-17
 36  1.70928057474802159e-16
 37 -6.35990900623170558e-08
 38 -2.50191606949132176e-06
 39  1.65026808708118242e-05
 40 -3.10148509912426003e-05
 41  5.80521837934076774e-05
 42  4.80183299902399809e-04
 43 -1.90200083940129997e-16
 44 -7.86862299451578979e-16
 45  1.66332780573924270e-06
 46 -4.85039112566603133e-17
 47 -3.18371516562498085e-16
 48 -1.67789359315066811e-05
 49 -3.84176110995474988e-16
 50  1.21517246746897251e-16
 51  6.98948006018032146e-05
 52 -9.85916066971034815e-17
 53 -1.75960804174850021e-16
 54 -2.66706482511179738e-04
 55  6.53312900427486811e-16
 56 -3.39699861834807096e-16
 57 -4.42579481677197469e-05
 58  2.34851866679241291e-05
 59  5.15469730920587312e-17
 60  2.71882151404089876e-16
 61  2.43042231510943743e-16
 62  3.08468563672489114e-17
 Sym= A
 Ene= -1.14358071206696010e+01
 Spin= Alpha
 Occup=  2.00000000000000000e+00
  1 -3.26570597494846824e-04
  2 -4.25600614632354606e-04
  3 -8.24997850772926001e-16
  4 -3.07584396533596070e-17
  5  4.54472371135402232e-04
  6  5.09391697569883573e-04
  7  7.42208812724344795e-17
  8 -2.22335158981656661e-16
  9  4.10455688161900619e-04
 10 -5.23957446609866519e-04
 11  1.41770581535491333e-15
 12  1.55739330024356218e-16
 13 -2.26031505305239347e-04
 14  2.66924291694741042e-04
 15  1.61813390908068528e-16
 16  1.22306356792553262e-16
 17 -1.94853040271953137e-16
 18 -1.00240808444507604e-16
 19  5.63368818147330530e-01
 20  4.66645254546451560e-01
 21 -7.77856477977172323e-16
 22 -4.35225889585895972e-16
 23 -7.25410115517135471e-04
 24  3.71418054719923913e-03
 25  6.94910386824070366e-16
 26  4.42699725500121618e-16
 27  3.43835416209297730e-05
 28  9.07621811668516852e-04
 29 -1.52907849309961580e-15
 30  9.15285265283051594e-17
 31  5.37140591252570528e-05
 32  1.44327379810632508e-03
 33  2.85274480601023565e-17
 34 -8.72837321948924810e-17
 35  2.82380744224344458e-16
 36  1.24904805354202383e-16
 37 -7.45606259271555766e-06
 38 -1.07280533105015986e-05
 39 -4.21900870493345384e-05
 40  1.36456653952325528e-04
 41 -1.51645409345536365e-04
 42 -3.30288109371547822e-04
 43 -6.32156009473869446e-16
 44 -8.68824328835293608e-16
 45  2.46793175106129067e-05
 46 -7.59478105914204803e-16
 47 -3.18991166610565265e-16
 48  1.50425918949379113e-05
 49 -1.16995212549522299e-16
 50 -1.72616831287733279e-15
 51 -4.25785299774686672e-05
 52  1.55620504042310668e-16
 53  5.36337730459323204e-16
 54  3.66622543806352421e-04
 55  7.15077425168162732e-17
 56 -8.45815620295468006e-17
 57  1.86852557802446965e-05
 58 -2.33936169579363265e-04
 59 -5.71545971018348356e-16
 60 -1.64786492117194450e-17
 61 -5.12938303752413735e-16
 62  4.69403956087090434e-17
 Sym= A
 Ene= -8.99030982323898442e+00
 Spin= Alpha
 Occup=  2.00000000000000000e+00
  1  2.04267027208503585e-06
  2  4.47244874991494613e-05
  3 -6.44817777965086751e-16
  4  6.84595810615795089e-17
  5 -1.40893892788027542e-04
  6 -7.55056085329311368e-04
  7  4.01897997486990647e-16
  8 -3.87216094748311830e-16
  9  7.23043243190286088e-04
 10  6.10529022805330734e-03
 11 -1.02087009468393355e-15
 12 -5.85822683164316612e-17
 13  1.85354958068892394e-03
 14  2.86701684951828429e-04
 15 -2.81984485148357254e-16
 16  5.43198643101118990e-16
 17  3.81567600485225329e-16
 18 -1.20037232619852110e-16
 19  2.35365581868881766e-04
 20  8.03253745949097930e-05
 21 -1.28265205501020512e-16
 22 -1.95902655088241984e-16
 23 -6.78870286541029874e-04
 24 -9.86247212586812620e-05
 25  9.61096166500962960e-16
 26  4.61112937688458748e-16
 27  3.61496778489695404e-03
 28 -4.26091980542101217e-03
 29 -2.21043219645172855e-16
 30  1.42367771336853922e-16
 31  3.36912122466370917e-03
 32  4.21524413549328081e-04
 33 -4.34925227726035762e-17
 34  2.96284992296986639e-16
 35 -1.09033825248968786e-16
 36 -1.88637681676093812e-17
 37  1.19740930893562067e-01
 38  3.24876966542560541e-01
 39 -5.32963651473774780e-01
 40 -5.86711312763277926e-01
 41 -3.69807749682665998e-02
 42  6.96843745122490126e-03
 43  1.64388377028053443e-15
 44 -3.27946972688946827e-15
 45  1.42948424197884556e-03
 46  1.65649189921686433e-15
 47 -3.75908046395901151e-15
 48  4.02343659467249617e-03
 49  8.87774669905023291e-16
 50  2.39351727845555854e-16
 51  4.79061973680795143e-04
 52  4.18010614680175279e-17
 53 -6.28004280009438787e-16
 54  2.99610916899630897e-03
 55 -4.80229522287643380e-16
 56 -2.04667064728192543e-16
 57 -1.72617016521356089e-03
 58 -1.49629123519637135e-03
 59 -8.98596561370218754e-17
 60  4.62000766818652428e-16
 61 -2.78247519736268651e-16
 62 -1.23121887712268267e-17
 Sym= A
 Ene= -6.67333609872103040e+00
 Spin= Alpha
 Occup=  2.00000000000000000e+00
  1  4.86185638717789584e-06
  2  9.45418606759220267e-06
  3 -4.17936603014723865e-16
  4  1.73178513360314035e-16
  5 -2.84622663484804851e-05
  6 -4.34545330572618047e-05
  7 -1.11420684283470312e-16
  8 -1.59791261806755765e-16
  9  5.92489133239270120e-05
 10  6.64259107265516074e-04
 11  5.00164735215840589e-16
 12 -5.55345870499859835e-16
 13 -1.50251534074591662e-04
 14 -9.33921205991548178e-06
 15 -6.20284340396078877e-16
 16  1.68814666294674572e-16
 17  1.38053674399944101e-16
 18 -1.68564759610622944e-16
 19 -3.46385917602800490e-04
 20 -3.21598500322821401e-04
 21 -6.47763922691750079e-17
 22  4.27342094670191480e-16
 23  4.83377756041082499e-04
 24  8.21511899477102097e-04
 25  1.48378156611522152e-16
 26 -1.74752565848619102e-16
 27  1.08921378223424581e-04
 28  6.51151758540154720e-04
 29  3.10653625488258264e-17
 30  2.98984922216853791e-16
 31  1.58400254463147332e-03
 32 -1.77003806336700873e-04
 33 -1.17460305442189476e-15
 34  5.46981967239084755e-16
 35  2.45182797161932290e-16
 36  6.94704407672774908e-17
 37  7.56083698892361577e-04
 38  2.09673619492788902e-03
 39 -4.26920842677592626e-03
 40 -3.08437679574841399e-03
 41  1.78386277632137024e-03
 42 -1.60418290086580145e-03
 43  4.79632841084605329e-13
 44 -3.03441868344186561e-13
 45 -3.74997639295035823e-01
 46  9.08770116324461119e-13
 47 -5.77776974255605261e-13
 48 -7.14676060267433355e-01
 49  5.87501504973523906e-14
 50 -3.65263308217370507e-14
 51 -4.83900463840371345e-02
 52 -3.68471805130502049e-15
 53  1.71147461960789702e-15
 54  3.76620219261667626e-03
 55  6.60089425334652593e-16
 56 -3.01731023408077103e-16
 57 -7.09987135731200291e-04
 58  8.68673282975661494e-04
 59 -4.38143493978049598e-16
 60  5.28902604209027906e-16
 61  1.10217424433137066e-16
 62  1.97814475379198127e-16
 Sym= A
 Ene= -6.66937777446994229e+00
 Spin= Alpha
 Occup=  2.00000000000000000e+00
  1 -3.25232001944561258e-16
  2 -2.38850974520248963e-16
  3  9.10419118139454021e-07
  4 -1.82086112842790689e-06
  5 -6.38777495281961326e-16
  6  1.57938650599007788e-15
  7  1.23993247603042280e-05
  8 -2.47989612456242514e-05
  9  1.78126873950767583e-16
 10 -1.19820981345931607e-14
 11 -3.09919577493788235e-05
 12  6.19846946541292436e-05
 13 -4.60217927630776760e-15
 14 -7.88230880746029338e-16
 15 -5.55597719600623047e-06
 16  1.11120940709604140e-05
 17 -3.67310764106579139e-16
 18  2.24622887023925414e-16
 19 -3.12509997025182673e-17
 20  4.25740793940642434e-16
 21  8.57412548154893177e-06
 22 -1.71484665239924880e-05
 23  2.16693539676908217e-16
 24  4.32453454986006520e-16
 25  7.96659461591147782e-05
 26 -1.59333895176665840e-04
 27 -3.42015770359860947e-15
 28  7.71876525534281672e-15
 29 -2.71364764851505595e-05
 30  5.42736352001718940e-05
 31 -6.78594200257697233e-15
 32  1.14353974627444097e-15
 33  1.64042788219437581e-05
 34 -3.28089700586485224e-05
 35  3.47501017017508835e-17
 36 -8.05990696481459117e-17
 37 -1.53777858302411127e-15
 38 -4.50654271605823123e-15
 39  7.53352622948015787e-15
 40  7.77166942027727715e-15
 41 -8.42068016362763186e-16
 42  2.43780025971575551e-15
 43  1.68090475037933007e-01
 44 -3.36185175990492469e-01
 45  4.83038716105014662e-13
 46  3.19811806737755333e-01
 47 -6.39631653772828934e-01
 48  9.22507436785738436e-13
 49  2.05252535475682618e-02
 50 -4.10510231145849933e-02
 51  6.41861174371770966e-14
 52 -1.25345382925188186e-03
 53  2.50693917117146125e-03
 54 -7.61881634276535830e-15
 55  3.93228950093380350e-04
 56 -7.86467786222191088e-04
 57  4.21010237352330828e-15
 58 -5.70728923975553677e-16
 59 -1.68591942234564459e-04
 60  3.37188122990627216e-04
 61 -3.60868348868173914e-16
 62  6.87999573532641916e-16
 Sym= A
 Ene= -6.66937777446988278e+00
 Spin= Alpha
 Occup=  2.00000000000000000e+00
  1  5.47826742183047178e-17
  2  6.00688895391720722e-16
  3  1.82086112704884937e-06
  4  9.10419119847291083e-07
  5  1.85664364775937073e-16
  6 -2.00912768234147406e-15
  7  2.47989612464052090e-05
  8  1.23993247593687733e-05
  9 -2.57924986751249169e-16
 10  2.76999471849842162e-15
 11 -6.19846946574431076e-05
 12 -3.09919577466203421e-05
 13  8.30928269432530926e-16
 14  3.49370546198895799e-17
 15 -1.11120940710848109e-05
 16 -5.55597719467487255e-06
 17  1.89291149779788793e-16
 18  2.89930208962789876e-16
 19  9.58182644693432519e-16
 20  7.89296004618813887e-16
 21  1.71484665224294446e-05
 22  8.57412548231405663e-06
 23 -1.69196190524920928e-16
 24 -6.16233534145896266e-16
 25  1.59333895179119173e-04
 26  7.96659461590539951e-05
 27 -3.64710762332199104e-16
 28 -2.81480072038491499e-15
 29 -5.42736352010117712e-05
 30 -2.71364764857967373e-05
 31  1.82564152815019493e-16
 32  5.37224825248948034e-16
 33  3.28089700607267414e-05
 34  1.64042788218148600e-05
 35 -8.35219600860006830e-17
 36  1.04530517227888557e-16
 37 -8.02815644200862794e-16
 38 -1.95868489089724252e-15
 39  3.60334166572110524e-15
 40  3.18165396679874566e-15
 41 -3.16895960884869912e-15
 42  2.11591722016609189e-15
 43  3.36185175990489638e-01
 44  1.68090475037935422e-01
 45  2.90796249122612482e-13
 46  6.39631653772798292e-01
 47  3.19811806737768378e-01
 48  5.55651651652525619e-13
 49  4.10510231146756777e-02
 50  2.05252535475253586e-02
 51  3.76478774560855235e-14
 52 -2.50693917123339261e-03
 53 -1.25345382922584106e-03
 54 -2.00649148739880859e-15
 55  7.86467786243929341e-04
 56  3.93228950082725136e-04
 57 -7.45833100545939834e-16
 58 -3.92144824122381807e-16
 59 -3.37188122989990355e-04
 60 -1.68591942234137528e-04
 61  6.41975874517080835e-17
 62  2.00715833770043152e-16
 Sym= A
 Ene= -1.54106008993220511e+00
 Spin= Alpha
 Occup=  2.00000000000000000e+00
  1  1.06161961613653308e-01
  2  1.76884914211178385e-01
  3 -3.89784803957878573e-15
  4 -1.87651363276627993e-15
  5 -7.51577794617970807e-02
  6 -4.91571754846998388e-01
  7 -7.94526316863528589e-15
  8 -4.18767822638381168e-15
  9 -1.12327781084835640e-01
 10 -3.49501041080122032e-01
 11 -2.02927875462077123e-15
 12 -2.68334135461142180e-15
 13 -4.24876847596977747e-02
 14 -2.22211840305655273e-02
 15 -9.16538047303354781e-16
 16 -1.60312226507063095e-15
 17 -2.91730817268263235e-15
 18  1.13352764417937811e-15
 19  6.52899718036372423e-02
 20  1.03716314330948647e-01
 21 -4.10208516688137276e-16
 22  2.37739509040937269e-15
 23  1.03650321168458889e-01
 24 -2.60526271888596950e-01
 25 -8.19460324511808743e-16
 26  4.13974510173983545e-15
 27  1.19072747490891390e-01
 28 -4.60069646298609178e-02
 29 -2.64691710300245130e-15
 30 -9.87806044058678801e-16
 31 -5.05313803149785579e-02
 32 -4.15368060602667802e-02
 33  5.50796984760720784e-16
 34 -9.46252298227449389e-16
 35  8.43096743767650001e-16
 36  1.81346850077739968e-15
 37 -1.12875316929605886e-03
 38 -3.33236949778813575e-03
 39  7.62418952575262369e-03
 40  9.36231614310902710e-03
 41 -1.52229046640385158e-02
 42  2.90630978549018780e-02
 43 -1.79571112081462573e-16
 44 -1.94630268893450012e-17
 45 -2.50109531060230218e-03
 46  1.35131189281422037e-16
 47  2.29969430157784824e-16
 48 -4.58322694368740961e-03
 49  1.50540005963985167e-17
 50  4.06989517083394072e-17
 51  6.17609593615447029e-03
 52 -4.66440905526513947e-16
 53  6.32823402252728369e-16
 54 -9.22164332009939303e-03
 55  1.63147751708685687e-15
 56  2.46462667840560619e-15
 57 -6.28213594155299822e-03
 58  2.30795372679050426e-03
 59 -2.89464455391561499e-17
 60 -5.59137911275127026e-16
 61  1.98669080583384653e-16
 62 -3.36121135212007916e-16
 Sym= A
 Ene= -1.08916775246057740e+00
 Spin= Alpha
 Occup=  2.00000000000000000e+00
  1  2.24390761830074309e-02
  2  3.82926668980984805e-02
  3  1.19048679957747072e-14
  4 -6.24253734259229194e-16
  5  6.76732382294888135e-03
  6 -1.18275979031646120e-01
  7  1.05419984391391382e-14
  8  1.08538962757394776e-15
  9  7.58863502990922336e-03
 10 -7.25023325248452949e-02
 11  1.44978811258362874e-14
 12 -6.13693611027352548e-16
 13  1.93305002417203803e-02
 14 -2.16553497878892035e-03
 15  2.61604207946055071e-15
 16 -9.32954733891460943e-16
 17 -3.66960688526608224e-16
 18  1.59658978844694914e-16
 19 -6.10088094469079523e-02
 20 -1.03917224666556535e-01
 21  6.79484623068805498e-15
 22 -6.96100272959406126e-16
 23  1.10734562779032500e-01
 24  2.91308292807367419e-01
 25  5.12180741763068562e-16
 26 -1.38026363879151381e-15
 27  1.82710431429472797e-01
 28  1.37803932105462046e-01
 29  4.50939485103798279e-15
 30  2.18823164212470274e-15
 31  5.46183819919631511e-02
 32  2.69492207771700673e-02
 33 -1.33885863896162562e-15
 34 -1.35598951668971409e-15
 35 -4.28708872823625320e-15
 36 -7.78059911060666561e-16
 37  2.60491355775345490e-02
 38  7.50155895934319639e-02
 39 -1.56705658324524655e-01
 40 -2.88649414030006268e-01
 41  5.11251699881765442e-01
 42  2.40152709601194003e-01
 43 -3.00652807711743285e-16
 44 -5.35838019780168829e-16
 45  2.94515352117175125e-02
 46 -8.95055275914132072e-16
 47 -6.88548706461254340e-16
 48  6.10884371105016588e-02
 49  9.70291624820411810e-16
 50  3.80061390440437070e-15
 51 -7.73010100149455759e-02
 52  3.86012566070006738e-15
 53 -7.04484162412566405e-16
 54 -8.77086569542047112e-02
 55 -6.70067143488089996e-15
 56 -5.07229463348629601e-15
 57  2.77557749047390757e-03
 58  3.99750521659381353e-02
 59  2.45381078549524154e-15
 60 -3.63496445560502100e-15
 61 -2.71680226680451683e-16
 62  1.42075162308827898e-15
 Sym= A
 Ene= -7.91065312201017612e-01
 Spin= Alpha
 Occup=  2.00000000000000000e+00
  1  5.60300308786548518e-02
  2  9.51988616774982754e-02
  3  6.96201572657412328e-15
  4  7.18944034914769285e-15
  5  2.34765201706750498e-01
  6 -2.94561713941595638e-01
  7  5.61679726055064205e-15
  8  1.13646977289662166e-14
  9  3.46242576686799863e-01
 10 -3.65484684625628997e-01
 11  1.26312976113398649e-14
 12  7.78017215108459694e-15
 13  2.23478649890387709e-01
 14  2.63181850553079050e-02
 15  9.51566608105204046e-16
 16  1.60837284753573680e-15
 17 -1.65861191855213810e-15
 18 -2.00788114990634969e-17
 19 -5.41567215389563081e-02
 20 -9.02972060958763117e-02
 21  3.29689269087021901e-15
 22 -7.29401233998375868e-16
 23 -1.02019229810241724e-01
 24  2.69532281685782971e-01
 25  3.82259257679196143e-15
 26 -2.62326399026599682e-15
 27 -1.41922063866984444e-01
 28  1.22471260468908189e-01
 29  1.64640199031752078e-15
 30  6.83530032750934662e-16
 31  3.53117361483537492e-02
 32  1.80546068014662657e-02
 33 -2.13235239850073912e-16
 34  4.98855947719118171e-16
 35 -4.86155621255347683e-16
 36 -1.48249498212971130e-15
 37 -8.72221406639224484e-03
 38 -2.51983008275176168e-02
 39  5.34026946582598569e-02
 40  9.86652560435234555e-02
 41 -1.77582127873003703e-01
 42 -1.82849684308507815e-01
 43  1.11192808843382544e-16
 44 -1.31254106376769393e-16
 45  6.11820515796658235e-03
 46  6.03761539245815440e-16
 47  1.70251334533511602e-16
 48  1.22560069154659338e-02
 49 -1.47553710439345929e-15
 50 -1.01571572088268136e-15
 51 -1.92901703597576843e-02
 52  6.08764511474224277e-16
 53  2.89197675849303743e-16
 54 -1.84796907987605091e-02
 55 -1.72144152084525612e-15
 56  9.74591838510209818e-17
 57  1.12761883069760812e-02
 58  9.15128155695207890e-04
 59 -1.26532439802775289e-15
 60  9.34012098430359460e-16
 61 -8.92464974888025733e-16
 62 -2.88189626726635797e-16
 Sym= A
 Ene= -6.79231208265210107e-01
 Spin= Alpha
 Occup=  2.00000000000000000e+00
  1 -4.33535275829645116e-16
  2 -2.97309951997718084e-15
  3  8.51806689185161670e-02
  4 -2.12133900037137918e-01
  5  8.01214440545564296e-15
  6  1.13046683858797829e-14
  7  1.35066338581221468e-01
  8 -3.36369149605784956e-01
  9  1.36525989128624540e-14
 10 -3.20870320963994620e-15
 11  1.04425843717594585e-01
 12 -2.60062074808071642e-01
 13  8.36997138189255970e-15
 14  2.23944991891079228e-15
 15  1.15728101045336224e-02
 16 -2.88209211436501606e-02
 17  2.34999988343786484e-15
 18 -6.64358051931489016e-16
 19  2.72607480773902847e-15
 20  5.23834770721046007e-15
 21  5.52040528217990142e-02
 22 -1.37480148625572424e-01
 23  5.49927324647755632e-15
 24 -1.68227408864532860e-14
 25  9.29215401532343943e-02
 26 -2.31411762321891895e-01
 27  8.03323066650229690e-15
 28 -8.57006477743972767e-15
 29  5.02581502007270892e-02
 30 -1.25162874934915291e-01
 31 -3.75334496066709180e-15
 32 -6.08847754188638606e-15
 33 -1.53094884134788011e-02
 34  3.81267431443988447e-02
 35 -2.29565728308636860e-15
 36 -3.20943711223452747e-15
 37 -5.38594419706845812e-16
 38 -1.64625525483110224e-15
 39  4.20375603777639302e-15
 40  4.00567838208061150e-15
 41 -9.87648538034340666e-15
 42 -3.56462938408277547e-15
 43 -7.31248833386629465e-03
 44  1.82110176984375954e-02
 45  1.00163236979845889e-15
 46 -1.48161370637578411e-02
 47  3.68981011622345409e-02
 48  2.17845041250971764e-15
 49  2.02531915343269857e-02
 50 -5.04385392006229047e-02
 51 -2.70103305721528775e-15
 52  4.02796560342554705e-02
 53 -1.00312437495337886e-01
 54 -7.78703384786729240e-15
 55  5.42706790200204667e-03
 56 -1.35155674925707004e-02
 57 -3.75032179257439968e-15
 58  2.16173717315129699e-15
 59 -1.09117836409138580e-02
 60  2.71747011323123441e-02
 61 -6.34220363436703707e-16
 62  6.86569461396548002e-18
 Sym= A
 Ene= -6.79231208265189457e-01
 Spin= Alpha
 Occup=  2.00000000000000000e+00
  1 -1.09535025899087423e-15
  2 -2.96280713200170284e-15
  3  2.12133900037205531e-01
  4  8.51806689184931992e-02
  5 -4.82368799919349589e-15
  6  1.01392515661085528e-14
  7  3.36369149605858397e-01
  8  1.35066338581191603e-01
  9 -9.42938068535645082e-15
 10  1.42778304542898645e-14
 11  2.60062074808064148e-01
 12  1.04425843717590408e-01
 13 -3.84362459360932252e-15
 14 -2.44835688487979730e-15
 15  2.88209211436566415e-02
 16  1.15728101045302467e-02
 17 -1.47750136884466488e-16
 18  1.29456638605635172e-15
 19  4.98469482331615990e-15
 20  7.63293853351344054e-15
 21  1.37480148625622051e-01
 22  5.52040528217790649e-02
 23  3.31104143128711373e-15
 24 -2.35096439599775806e-14
 25  2.31411762321615422e-01
 26  9.29215401533389496e-02
 27 -2.47266393847133421e-15
 28 -2.04797142578860950e-14
 29  1.25162874935083379e-01
 30  5.02581502006600733e-02
 31  4.61398989170635887e-15
 32 -5.40770657328806622e-16
 33 -3.81267431444091837e-02
 34 -1.53094884134706583e-02
 35 -4.43450130375165053e-16
 36 -1.21570562641638081e-15
 37 -4.78319632863876506e-16
 38 -1.27740930742471734e-15
 39  3.36451208378409825e-15
 40  2.98074583297828650e-15
 41 -8.96484445052035389e-15
 42  4.48401220829345924e-15
 43 -1.82110176984359891e-02
 44 -7.31248833386985778e-03
 45 -1.78909375452913224e-15
 46 -3.68981011622196639e-02
 47 -1.48161370637685651e-02
 48 -3.57077097531398879e-15
 49  5.04385392005737704e-02
 50  2.02531915343548072e-02
 51  6.19295113731172097e-15
 52  1.00312437495390400e-01
 53  4.02796560342479418e-02
 54  5.12603097945770626e-15
 55  1.35155674924357597e-02
 56  5.42706790206435620e-03
 57 -5.89862822370760651e-15
 58 -1.66587715100292096e-15
 59 -2.71747011322902091e-02
 60 -1.09117836409250921e-02
 61 -9.43678173295528275e-16
 62  5.48947747401773690e-16
 Sym= A
 Ene= -6.34485483915640303e-01
 Spin= Alpha
 Occup=  2.00000000000000000e+00
  1  1.62864246142042143e-03
  2  2.43649166534598430e-03
  3 -2.53323319463597556e-15
  4  8.30752200858132890e-16
  5  7.71409488324110715e-02
  6 -6.26425314072045353e-03
  7 -3.19751339048486502e-15
  8  9.11087742080683739e-16
  9  1.17189000450090411e-01
 10 -4.28859104374490832e-02
 11 -1.13971156282216039e-15
 12 -4.85588770313225104e-16
 13  7.66277899318661554e-02
 14  1.11718406397651165e-02
 15 -4.15960256927064634e-16
 16  7.29925117054178318e-16
 17 -1.25754963538564117e-16
 18 -5.68483819359899770e-17
 19  4.05032480063827541e-02
 20  7.16585215561805211e-02
 21 -2.60987863560139124e-15
 22 -3.26549196806232902e-15
 23 -1.35872074615812716e-01
 24 -2.06652779902233796e-01
 25 -1.34021097669127199e-15
 26 -3.35566027775598431e-15
 27 -2.11193743047636662e-01
 28 -2.77076043507816228e-01
 29 -4.84958914997167687e-15
 30 -1.26826050087045923e-15
 31 -9.21074664869369203e-02
 32 -9.44426974158046190e-03
 33  9.77176632593017005e-16
 34  1.18404054682177438e-15
 35  3.18541511125313128e-15
 36  5.75277172183137124e-16
 37  1.95313630946544678e-02
 38  5.67069129393027102e-02
 39 -1.22694397240214692e-01
 40 -2.19646803060193213e-01
 41  3.89352064210386928e-01
 42  5.18952546928870939e-01
 43 -1.37264770040957456e-15
 44  2.64601784595890140e-15
 45 -6.75017353117886160e-02
 46 -5.73228715604589745e-15
 47  5.11104437571246793e-15
 48 -1.37430410279912818e-01
 49  8.50362542728324560e-15
 50 -4.80987273206872905e-15
 51  1.94102207204620791e-01
 52  8.10965996371299091e-15
 53 -1.84701054321496277e-14
 54  3.08575005923971080e-01
 55  9.19313157251823577e-15
 56  1.68798446599339385e-15
 57  2.75706688444108949e-02
 58 -5.74450120079240262e-02
 59  1.39074089850654469e-16
 60  2.87762946988912824e-15
 61  1.84619831573042269e-15
 62  2.35227849969858631e-16
 Sym= A
 Ene= -4.16018129238746426e-01
 Spin= Alpha
 Occup=  2.00000000000000000e+00
  1  1.67447831249615934e-16
  2 -1.25024436834345583e-16
  3  1.16664260879130691e-01
  4  6.35285128740022045e-03
  5 -1.15606644766071958e-16
  6 -1.40739199482974411e-15
  7  1.68041473873674935e-01
  8  9.15055292503691962e-03
  9 -2.16430328055399521e-15
 10  6.22900655330143461e-15
 11  2.17326472348656929e-01
 12  1.18343248330038484e-02
 13  1.23484665048995795e-14
 14 -8.37366272079360844e-16
 15  3.89436785804385269e-03
 16  2.12064428934866556e-04
 17  4.73495180683592725e-16
 18 -1.17966903012935175e-18
 19  2.27319150724848658e-15
 20  4.60183142749642036e-15
 21 -4.20921125353441450e-02
 22 -2.29208953362441698e-03
 23 -3.36717442289207318e-15
 24 -1.84136595482746693e-14
 25 -8.90811003503088200e-02
 26 -4.85083416961586134e-03
 27 -6.44081552163033945e-16
 28 -1.92806974341753303e-14
 29 -9.31343756361344283e-02
 30 -5.07155176486604516e-03
 31 -1.34438535115792911e-14
 32 -1.62781805499870908e-15
 33 -6.37592164442174758e-02
 34 -3.47195291188029430e-03
 35  6.42123529450374106e-16
 36  2.88866705055251423e-16
 37  4.37350554840830397e-16
 38  1.14219859584722513e-15
 39 -2.53879441731109540e-15
 40 -5.20267962036954232e-15
 41  1.54523075426327926e-14
 42  1.06623196391422030e-14
 43  8.70124673745225896e-02
 44  4.73818855246750398e-03
 45 -1.40434457401896925e-15
 46  1.73451422317057152e-01
 47  9.44514698215351625e-03
 48 -1.85939214387574269e-15
 49 -2.36125733978409302e-01
 50 -1.28580223436843520e-02
 51  3.55707904795101346e-15
 52 -5.51079372963370062e-01
 53 -3.00085499843977914e-02
 54  3.43222288011401314e-15
 55 -2.20781985756615701e-01
 56 -1.20224918229611538e-02
 57 -7.33942035094875708e-15
 58  3.39446876981165388e-16
 59  3.99866698036479354e-02
 60  2.17743947312264933e-03
 61  1.72084183636401154e-15
 62 -2.11380419550308439e-15
 Sym= A
 Ene= -4.16018129238669154e-01
 Spin= Alpha
 Occup=  2.00000000000000000e+00
  1 -7.34881279475008914e-16
  2 -1.12584076375360808e-15
  3  6.35285128739245496e-03
  4 -1.16664260879156656e-01
  5  7.29731846100346687e-15
  6  4.59660928304584056e-15
  7  9.15055292502632393e-03
  8 -1.68041473873708991e-01
  9  7.12309796284191055e-15
 10 -6.95058812448822367e-16
 11  1.18343248329982869e-02
 12 -2.17326472348725513e-01
 13  1.87338522627817982e-15
 14 -7.32767275042349279e-16
 15  2.12064428934803022e-04
 16 -3.89436785804160406e-03