[Molden Format]
[Atoms] (AU)
O    1    8        -1.528963863260       2.433972183354       0.000000000000
C    2    6        -1.528963863260       0.318487190494       0.000000000000
S    3   16         1.338768845312      -1.337199060764       0.000000000000
[GTO]
  1 0
 s    6  1.00
     8588.5000000000         0.0018951500
     1297.2300000000         0.0143859000
      299.2960000000         0.0707320000
       87.3771000000         0.2400010000
       25.6789000000         0.5947970000
        3.7400400000         0.2808020000
 s    3  1.00
       42.1175000000         0.1138890000
        9.6283700000         0.9208110000
        2.8533200000        -0.0032744700
 p    3  1.00
       42.1175000000         0.0365114000
        9.6283700000         0.2371530000
        2.8533200000         0.8197020000
 s    1  1.00
        0.9056610000         1.0000000000
 p    1  1.00
        0.9056610000         1.0000000000
 s    1  1.00
        0.2556110000         1.0000000000
 p    1  1.00
        0.2556110000         1.0000000000
 d    1  1.00
        1.2920000000         1.0000000000

  2 0
 s    6  1.00
     4563.2400000000         0.0019666500
      682.0240000000         0.0152306000
      154.9730000000         0.0761269000
       44.4553000000         0.2608010000
       13.0290000000         0.6164620000
        1.8277300000         0.2210060000
 s    3  1.00
       20.9642000000         0.1146600000
        4.8033100000         0.9199990000
        1.4593300000        -0.0030306800
 p    3  1.00
       20.9642000000         0.0402487000
        4.8033100000         0.2375940000
        1.4593300000         0.8158540000
 s    1  1.00
        0.4834560000         1.0000000000
 p    1  1.00
        0.4834560000         1.0000000000
 s    1  1.00
        0.1455850000         1.0000000000
 p    1  1.00
        0.1455850000         1.0000000000
 d    1  1.00
        0.6260000000         1.0000000000

  3 0
 s    6  1.00
    93413.4000000000         0.0007430000
    13961.7000000000         0.0057930000
     3169.9100000000         0.0299540000
      902.4560000000         0.1190280000
      297.1580000000         0.3684320000
      108.7020000000         0.5772990000
 s    3  1.00
      108.7020000000         0.1431860000
       43.1553000000         0.6244650000
       18.1079000000         0.2833660000
 s    1  1.00
        5.5600900000         1.0000000000
 s    1  1.00
        2.1318300000         1.0000000000
 s    1  1.00
        0.4204030000         1.0000000000
 s    1  1.00
        0.1360450000         1.0000000000
 p    4  1.00
      495.0400000000         0.0083090000
      117.2210000000         0.0640240000
       37.7749000000         0.2776140000
       14.0584000000         0.7450760000
 p    2  1.00
        5.5657400000         0.6137120000
        2.2629700000         0.4438180000
 p    1  1.00
        0.8079940000         1.0000000000
 p    1  1.00
        0.2774600000         1.0000000000
 p    1  1.00
        0.0771410000         1.0000000000
 d    1  1.00
        0.6500000000         1.0000000000

[5D]
[9G]

[MO]
 Sym= A
 Ene= -9.19754354538906256e+01
 Spin= Alpha
 Occup=  2.00000000000000000e+00
  1 -7.48504734359252540e-07
  2  3.06027333107318077e-06
  3  2.02535389580639216e-06
  4 -3.00481650158405468e-06
  5 -2.99499793726804110e-16
  6 -1.62518131837352374e-05
  7 -7.56608796186435321e-06
  8  2.16800018229069504e-05
  9 -3.61765894519099641e-17
 10 -4.28267015017017927e-05
 11  1.12219920648128453e-05
 12  2.09134854850282819e-05
 13 -4.37821303427476876e-16
 14  1.60473008130889155e-06
 15  1.49365378924900227e-18
 16 -1.02845656930916547e-16
 17  8.65466725853307842e-06
 18  1.37530754297638211e-06
 19 -1.24993651200349066e-07
 20  2.76228035786092218e-06
 21  1.33668382247009065e-05
 22 -1.32728354867317251e-05
 23  9.98371689526553375e-17
 24 -9.45703779588080524e-07
 25 -3.48490882342002785e-05
 26  5.76461387840436411e-05
 27 -2.73349490706109335e-16
 28  8.76213438836789045e-05
 29  1.53613094275805879e-05
 30  3.93888100254893157e-07
 31  9.83864569693857447e-17
 32  5.35985025752220555e-06
 33  1.12081738287482959e-17
 34  2.92489471229688599e-17
 35 -3.03858360899121829e-05
 36  2.26429131835710219e-05
 37  4.11059583207904033e-01
 38  6.54983507788675312e-01
 39  1.22028094208868673e-02
 40 -1.36951849358415154e-03
 41  3.85144242596909491e-04
 42 -1.95323947465064507e-04
 43 -1.01634644332075389e-04
 44  3.26627684824269790e-05
 45  1.73359783961700276e-16
 46  3.69079139980047743e-05
 47 -1.19130197292787094e-05
 48 -1.56474732281627862e-16
 49 -1.82306400256734372e-05
 50  4.33502410189039179e-06
 51  6.52703372221785344e-16
 52 -1.07227687945802872e-05
 53  9.00474859276683971e-06
 54 -5.85071289445794571e-16
 55  3.35336600538984456e-05
 56 -2.27404726216339397e-05
 57  1.06239775294527498e-16
 58 -1.07014425437922202e-05
 59  8.60485308102431466e-17
 60 -1.20237936594199670e-16
 61  1.52299969819452606e-05
 62 -1.32892317013818639e-05
 Sym= A
 Ene= -2.07013590287531990e+01
 Spin= Alpha
 Occup=  2.00000000000000000e+00
  1  5.51452457342100466e-01
  2  4.71698194784429981e-01
  3 -3.14479179362827592e-04
  4 -1.72762368665063323e-03
  5  4.45332036880551814e-16
  6  5.48542740892446565e-03
  7  1.62767634012646930e-04
  8  4.47273154114075382e-04
  9 -2.61823735959467755e-16
 10 -9.55076056328745720e-04
 11 -8.48857457399979635e-05
 12  9.72252193490979045e-05
 13  3.53831794412332295e-16
 14 -7.59710424873638417e-05
 15  6.84012490452871873e-17
 16 -2.36359411429781121e-16
 17 -1.94225116993145306e-04
 18 -7.26358398768829779e-05
 19  1.25599254112886635e-05
 20 -7.08956321286598190e-05
 21 -5.03011368207228642e-06
 22  1.36634964218764382e-04
 23  1.06818661957601833e-16
 24  3.18625891855171697e-04
 25 -3.53848261145046496e-05
 26  2.81530876906205794e-04
 27 -1.10559334439009801e-16
 28  5.74964623698412218e-04
 29  8.10915328862505205e-05
 30  3.35820590730466679e-04
 31  2.85104845043897783e-17
 32 -6.98151395783146129e-05
 33  7.60933947871040431e-17
 34 -2.12654127342152641e-16
 35 -9.42148799066498373e-05
 36 -2.08424692167609939e-05
 37 -2.84968610833271551e-07
 38 -1.70290679143986336e-08
 39 -4.21368456539915137e-06
 40  1.58559551037876032e-05
 41 -1.80073707814923713e-05
 42 -6.84896750664345025e-05
 43  1.91374204830595322e-07
 44  2.20163301076589853e-06
 45  1.09112599632121730e-16
 46  6.58707001305737628e-07
 47  7.68608156910306738e-08
 48  3.47625211464506234e-16
 49 -4.58023442118967442e-06
 50  1.18766212358621008e-05
 51  4.23914134901742113e-16
 52  2.49918938104265020e-05
 53 -7.91024887044730916e-05
 54 -1.00956019534654410e-16
 55 -1.45661547631720204e-05
 56 -2.08453951003635871e-05
 57  2.67363175117449152e-16
 58 -8.29359170440986492e-07
 59  1.64548474698453146e-16
 60 -1.21623105888511639e-16
 61  9.72157723634313159e-06
 62  1.27649154997066584e-05
 Sym= A
 Ene= -1.14537333940965258e+01
 Spin= Alpha
 Occup=  2.00000000000000000e+00
  1 -3.47425126972122054e-04
  2 -4.91608300768754669e-04
  3  4.30642714177776774e-05
  4 -4.47370937202712946e-04
  5 -9.81253397417707509e-17
  6  9.13471750645922925e-04
  7  4.60931581988952618e-05
  8 -8.28332089004507523e-04
  9 -3.63959853109667777e-16
 10 -2.93358695370682929e-04
 11  6.74653227896466204e-05
 12  1.26063334047301067e-04
 13  2.86151975387593952e-16
 14 -1.90031415819003915e-04
 15 -1.36635285834999535e-17
 16 -1.77573534217036987e-16
 17 -3.47283766190172006e-04
 18 -2.18471110385095293e-05
 19  5.63474395989129073e-01
 20  4.66771870079506934e-01
 21 -7.16984687748940201e-04
 22  1.10283849455867144e-03
 23 -9.67230426909740461e-17
 24  3.08946299761923273e-03
 25  5.83988512825423640e-04
 26 -4.51428650257878794e-05
 27 -3.24539188975611549e-16
 28  1.04087276898910601e-04
 29 -2.54445834351953203e-04
 30  2.94935924574690810e-04
 31 -3.91387462827436846e-17
 32 -4.27709572344039805e-04
 33  1.01969075947536889e-16
 34 -1.90206281267156731e-16
 35 -5.19724233362803744e-04
 36 -2.15437205936211949e-04
 37 -1.76555614336081902e-06
 38 -3.52057032993517356e-06
 39 -5.40483845237071715e-07
 40 -1.24622785900927795e-05
 41  5.98690096071869727e-05
 42  1.88295179305081469e-04
 43  7.56747621533617783e-06
 44 -1.01959614066440299e-05
 45  1.37531071261672718e-16
 46  3.48002306666283547e-05
 47 -2.87954574554479502e-05
 48  3.29266851949801121e-16
 49 -9.80072786794678065e-05
 50  5.79980220397167951e-05
 51  4.13590511664559558e-16
 52  1.75543725632107728e-05
 53  5.31562391921256710e-05
 54 -7.89026969060029019e-16
 55 -9.42353173388525510e-05
 56  1.84293423328662569e-05
 57  3.17641508836662528e-16
 58  1.51347389718113459e-05
 59  2.20754286391301806e-16
 60  2.04431097934007358e-16
 61 -2.36814943282627775e-05
 62 -1.08461130566316673e-05
 Sym= A
 Ene= -8.97674163469921638e+00
 Spin= Alpha
 Occup=  2.00000000000000000e+00
  1 -8.93636327564931553e-06
  2 -6.34869659859370414e-05
  3 -5.03569614939349702e-05
  4  4.65298751189485807e-05
  5 -9.68481323042374630e-17
  6  4.67172597419774477e-04
  7  2.47352513121481177e-04
  8 -5.79983595898556038e-04
  9 -5.16804222835087173e-16
 10  1.43337015377438927e-03
 11 -5.83504118662765258e-04
 12 -7.68894268295646551e-04
 13  1.72302260759108273e-16
 14 -4.54434218172042179e-05
 15 -5.20698788169527633e-18
 16  1.01696465132840024e-16
 17 -2.50335843260120390e-04
 18 -3.68344668934298018e-06
 19  8.79974790094147660e-05
 20 -2.21331142234532528e-05
 21 -4.50432936747864241e-04
 22  4.75070523045634111e-04
 23 -8.17799637465162775e-18
 24  2.12471889693248902e-05
 25  1.36305845131000662e-03
 26 -1.79873653681846012e-03
 27  4.43404536592308183e-16
 28 -2.96317450289234783e-03
 29 -2.03691164300245838e-04
 30 -1.95499378442869130e-04
 31 -7.60015614495037979e-16
 32 -3.11384465631727510e-04
 33 -2.84737137170311156e-16
 34  1.82699415991107632e-16
 35  9.67243790961955880e-04
 36 -7.93567945339578983e-04
 37  1.19771717651674464e-01
 38  3.24948359373177564e-01
 39 -5.33199805333990584e-01
 40 -5.86945853043835175e-01
 41 -3.59341450742004589e-02
 42  8.58779850630343039e-03
 43  1.43812733136930784e-03
 44 -5.38652702611638391e-04
 45  1.08058363921641187e-15
 46  3.98764946083705971e-03
 47 -1.41680524568668837e-03
 48  2.64809551808218822e-16
 49  4.49694828737756257e-04
 50 -1.47803664357111053e-04
 51  2.21863358801033884e-16
 52  1.21494222347383633e-03
 53 -7.55023101724990693e-04
 54  2.01548188265064938e-16
 55 -1.34099383910164056e-03
 56  9.46091135936427512e-04
 57  8.75263741798745415e-17
 58  5.38691752031409689e-04
 59 -3.68060856703740617e-16
 60  4.02867029671195497e-16
 61 -6.34903126505889127e-04
 62  7.21966060867944032e-04
 Sym= A
 Ene= -6.65916583276686680e+00
 Spin= Alpha
 Occup=  2.00000000000000000e+00
  1  4.79859073913636941e-06
  2  2.32739743140559678e-05
  3  1.75842938583939583e-06
  4 -2.74905132336201701e-05
  5 -1.47079570915481851e-16
  6 -1.56679518633717741e-04
  7 -5.84640613907766443e-06
  8  2.41069454074253951e-04
  9 -1.50103129739154382e-16
 10 -3.69973583950265316e-04
 11 -2.43475369288634932e-04
 12  7.73066650320863608e-05
 13 -2.72419671458291876e-16
 14  9.20168915261349576e-06
 15 -1.22526483527507481e-17
 16  7.43626867977268577e-17
 17  7.16641697898252357e-05
 18  3.58526895006494687e-05
 19 -1.19351244428146942e-04
 20 -1.83786703175797638e-04
 21  2.60753640961627702e-04
 22 -2.33949400712316524e-04
 23 -2.01546623210292364e-16
 24  6.26232303404195001e-04
 25  7.21044237642722886e-05
 26  1.63801241654050868e-04
 27  1.04392031936350055e-16
 28  7.90901964598741047e-04
 29  8.60130714595854027e-04
 30 -2.53216596639891311e-04
 31 -7.84168241783612758e-17
 32 -4.41151744323081365e-05
 33 -9.02844388224709990e-18
 34 -1.33905634667151986e-16
 35 -2.10142581890085725e-04
 36  1.35454522910501216e-04
 37  7.61259666813086325e-04
 38  2.11407500022316652e-03
 39 -4.28640724543128977e-03
 40 -2.92358397037524240e-03
 41  1.23565578890450964e-03
 42 -1.04593955924067337e-03
 43 -3.51226258892525789e-01
 44  1.29930455365710490e-01
 45  1.12184883222148412e-13
 46 -6.70571918186001925e-01
 47  2.47478639870112177e-01
 48  2.13015026775458181e-13
 49 -4.63259360712817633e-02
 50  1.65937143144425682e-02
 51  1.25852098905028807e-14
 52  3.84661607137151088e-03
 53 -1.30026844705982084e-03
 54 -8.72702939574866957e-17
 55 -9.04235328810691543e-04
 56  2.23531426931113575e-04
 57 -2.19509542836006730e-17
 58 -3.14372367606780077e-04
 59 -1.30972316617850093e-16
 60 -1.69077006221628617e-16
 61  3.36513656043856049e-04
 62 -4.49092118436164090e-04
 Sym= A
 Ene= -6.65477060056071501e+00
 Spin= Alpha
 Occup=  2.00000000000000000e+00
  1 -1.20128127931498517e-16
  2 -3.84278679193275483e-17
  3  2.73750036484986335e-16
  4 -1.11075018166734008e-15
  5  6.16359106988412055e-06
  6 -1.01651886569889626e-15
  7 -4.54889736282822954e-16
  8  4.68677474756465560e-15
  9  6.88432345945729865e-06
 10 -1.34120228549436714e-14
 11 -1.19419275487715334e-15
 12  2.95182801553504062e-15
 13 -2.25026399085178394e-05
 14  7.79701111366114681e-17
 15 -4.05052683670364886e-06
 16  7.39330573231890287e-06
 17  1.30544470893256717e-15
 18 -8.40782576871098029e-17
 19 -9.84094332369329521e-16
 20 -1.25510557979792303e-15
 21  1.65578524859347609e-15
 22 -2.23746506008414912e-15
 23 -1.50476442774863652e-06
 24  3.42343557547243645e-15
 25  1.43011551682303120e-15
 26  1.23144473397618942e-14
 27  1.23160735248522744e-04
 28  1.35820596293915363e-14
 29  2.76798808438590747e-15
 30 -3.02452377271129659e-15
 31 -1.09360478533791230e-04
 32 -1.75230486836033565e-15
 33  3.88304581128317059e-05
 34 -5.99994085503640591e-06
 35 -3.02957304432630518e-15
 36  1.68814246531641251e-15
 37 -2.01140892694646979e-16
 38 -4.53621922818031751e-16
 39  2.53726518527456855e-15
 40 -4.89126097910311282e-15
 41  1.05729195169010585e-14
 42 -5.97995305465607313e-15
 43  5.96136580804396035e-12
 44  1.58665881983840032e-11
 45  3.76146930087243259e-01
 46  1.13538038943190998e-11
 47  3.01450863111207626e-11
 48  7.15138980725767648e-01
 49  7.37426975207463087e-13
 50  1.88806616117049281e-12
 51  4.53433225115990532e-02
 52 -4.76353904855950144e-14
 53 -1.00382620424922570e-13
 54 -2.61983269578183872e-03
 55  1.66686579183570443e-14
 56  2.97099979671824594e-14
 57  8.49235505604230734e-04
 58 -2.22568306363096399e-15
 59 -3.83889436259062346e-04
 60  1.82086676797395584e-04
 61 -1.38757714401567254e-14
 62 -1.54993710926097174e-14
 Sym= A
 Ene= -6.65468501744045948e+00
 Spin= Alpha
 Occup=  2.00000000000000000e+00
  1  8.45377579326485960e-07
  2  7.30004884536371471e-06
  3  4.02194322121749473e-06
  4 -1.13311277924144209e-05
  5 -2.53090859031965245e-16
  6 -6.75359517132425257e-05
  7 -1.13115141934558725e-05
  8  6.92977196255638073e-05
  9 -5.88029522829492211e-16
 10  6.43917333957315423e-05
 11  1.66492863529426897e-05
 12 -1.05682207486000449e-04
 13  1.18158722237044364e-15
 14 -3.42056760266901999e-06
 15  1.60848062684435181e-16
 16 -4.66322267610607902e-16
 17  7.11734302441365090e-06
 18 -6.90684746007260204e-06
 19 -1.70707222220778282e-05
 20 -1.77154900674717742e-05
 21  3.54567771530747027e-05
 22 -2.05339104041315053e-05
 23 -8.85228677690892882e-17
 24  4.44982743843957312e-05
 25  3.14348170832134781e-05
 26  1.27648389582675210e-04
 27 -5.81305197797820916e-15
 28 -1.81831467191567552e-04
 29 -1.11006646219559581e-04
 30 -1.01673660269810479e-04
 31  4.95241163985556829e-15
 32  1.71172349229662177e-06
 33 -1.69917568922369196e-15
 34  1.11088009655689071e-16
 35 -2.14557007587442894e-05
 36  5.42922373110265981e-05
 37  9.38224726580642234e-07
 38  3.51437065234300771e-07
 39  4.23476296948752218e-05
 40 -1.28986093845854524e-04
 41  1.58693678316539798e-04
 42  1.20171560231338071e-04
 43  1.30039246176532314e-01
 44  3.53121538081182573e-01
 45 -1.69416242065880080e-11
 46  2.47631395123112330e-01
 47  6.70895093544846111e-01
 48 -3.22105133147210491e-11
 49  1.61103333590644215e-02
 50  4.20641220116818246e-02
 51 -2.04187622654985215e-12
 52 -1.16426644197605055e-03
 53 -2.22537420963518986e-03
 54  1.18338368881359347e-13
 55  3.20750069824798738e-04
 56  7.60760608854885753e-04
 57 -3.87839761419265185e-14
 58 -5.82074393654372009e-05
 59  1.74966509573010495e-14
 60 -8.06535777765530519e-15
 61 -2.90185586046985992e-04
 62 -3.67639421308770756e-04
 Sym= A
 Ene= -1.57562636324203931e+00
 Spin= Alpha
 Occup=  2.00000000000000000e+00
  1  1.06441729636795948e-01
  2  1.77751188337762933e-01
  3 -3.18885410068732921e-03
  4  7.71751315831862850e-02
  5  1.06367968749144862e-16
  6 -5.01134649565968204e-01
  7 -4.04222009810435538e-03
  8  1.16396002079266953e-01
  9 -1.14877215692337200e-15
 10 -3.26013985279454799e-01
 11 -1.43187280422641490e-03
 12  4.14721512435869064e-02
 13  8.79738225604129203e-16
 14  1.14274845834570846e-02
 15 -1.13173245075438443e-15
 16 -1.36140583425705443e-16
 17  2.02419816558572982e-02
 18  6.48509598280837301e-05
 19  6.49757734216718091e-02
 20  1.03050831518880906e-01
 21 -9.32067529358802851e-05
 22 -1.03478347374683102e-01
 23  5.88690973524170747e-16
 24 -2.64795530973980120e-01
 25 -2.24827571101234762e-03
 26 -1.22880408662375817e-01
 27  8.63081391927110140e-16
 28 -1.51823706907936624e-02
 29  4.65701728239611631e-03
 30  1.58513370240775005e-02
 31 -1.06467101660021758e-15
 32  1.79203044551644146e-02
 33 -8.78201862075465936e-16
 34  3.06097149517103387e-16
 35  2.70791729546856069e-02
 36  2.49572509596425809e-03
 37 -1.45692377659608903e-03
 38 -4.12718656236640141e-03
 39  8.03624211565075186e-03
 40  1.71782030126733549e-02
 41 -3.03591590252826476e-02
 42 -8.17887772681596091e-03
 43 -2.38389790006194409e-03
 44  2.54074714043157207e-03
 45  2.31374167969223085e-16
 46 -5.23855599182419199e-03
 47  5.34226788168510117e-03
 48  2.09534778747975548e-18
 49  6.79017157670540675e-03
 50 -6.58941681189745970e-03
 51  2.28978477002740989e-16
 52  8.90375771383495121e-03
 53 -1.22069335802137361e-02
 54 -6.96784453656888125e-16
 55 -2.80855812126853564e-03
 56 -1.18037146647953744e-04
 57  9.67960948619640027e-16
 58  2.99634356540360962e-03
 59 -2.84870330443930362e-16
 60  9.36065574109487318e-16
 61 -4.45595218305050271e-06
 62  6.60100079592783849e-03
 Sym= A
 Ene= -1.00584666565014946e+00
 Spin= Alpha
 Occup=  2.00000000000000000e+00
  1  3.13920985227586144e-02
  2  5.28965689438653797e-02
  3  2.99691609167210445e-02
  4 -3.39225421469094360e-02
  5  6.29659030360164541e-16
  6 -1.54811069830401743e-01
  7  4.96132128195516248e-02
  8 -5.81289689736775861e-02
  9  3.03087122918431581e-16
 10 -1.42745381041021191e-01
 11  2.35444741510868125e-02
 12 -3.72199177433184120e-02
 13  7.87451882759402081e-16
 14 -1.73123896444725531e-03
 15 -2.54717880767017655e-16
 16  4.84473906344081017e-17
 17 -3.25466542059761436e-03
 18 -6.74902932980837953e-03
 19 -5.35376949456084078e-02
 20 -9.10376936328267661e-02
 21  5.87494973475157084e-02
 22 -6.34636454493342772e-02
 23 -8.30215560864930585e-16
 24  2.61306877835598528e-01
 25  1.12344303722578198e-01
 26 -1.20730259091289510e-01
 27 -5.44014672742007424e-16
 28  1.46397476607134563e-01
 29  3.16344829097263275e-02
 30 -3.95246697638480249e-02
 31  3.95608395932931942e-17
 32 -7.89235211799883818e-03
 33  4.03382271178940735e-16
 34  1.87437347445695791e-15
 35  1.79764671841755250e-02
 36 -1.20279886283282955e-02
 37  2.61385729857455708e-02
 38  7.52848161161082663e-02
 39 -1.57504653108745063e-01
 40 -2.93153497608061864e-01
 41  5.25271733357068671e-01
 42  2.90788221715008677e-01
 43  1.67654976210371703e-02
 44 -1.12528165350165490e-02
 45  6.34306386863689417e-16
 46  3.52904631768654331e-02
 47 -2.34294341955335987e-02
 48  1.53039346381354055e-15
 49 -4.38125419323599843e-02
 50  3.14358867314504867e-02
 51 -2.67752405582469869e-15
 52 -6.12668505757377399e-02
 53  4.54742977676612647e-02
 54 -2.97329555721865002e-15
 55  2.35706378816604540e-03
 56  8.18742305347354188e-04
 57 -1.72819509470442275e-15
 58 -1.51155509005046554e-02
 59  9.37942125308327097e-16
 60 -2.90681949128408398e-15
 61  1.41984892151695852e-02
 62 -2.36342991503603952e-02
 Sym= A
 Ene= -8.21033238138701327e-01
 Spin= Alpha
 Occup=  2.00000000000000000e+00
  1  5.29056839788678707e-02
  2  8.98542348439365091e-02
  3 -1.27274316480411407e-02
  4 -2.33598241896325221e-01
  5 -5.04022459233918345e-16
  6 -2.77664782795889298e-01
  7 -2.11817415551018469e-02
  8 -3.45734204578953097e-01
  9 -2.37581125226380520e-15
 10 -3.63601607778007929e-01
 11 -1.19754426409107474e-02
 12 -2.14814069174933148e-01
 13  1.05865799152336367e-15
 14 -1.26584256457421430e-02
 15 -7.42190134422996084e-16
 16 -3.39902234303681258e-17
 17 -2.17932104887289119e-02
 18  4.28984806428276289e-03
 19 -5.20461498359865229e-02
 20 -8.64991700530953894e-02
 21 -2.62794936021297811e-02
 22  9.74020197395772669e-02
 23 -1.17542304635367025e-15
 24  2.61254947929232650e-01
 25 -4.76724250877880867e-02
 26  1.36398091751348732e-01
 27 -1.78560851443198594e-15
 28  9.82848926408509682e-02
 29 -7.93033705345070131e-03
 30  1.76477644645083032e-03
 31 -5.59404851606270877e-16
 32 -8.60072256587379388e-03
 33  7.88807370501415150e-16
 34 -1.36079668339313486e-15
 35 -1.75551641245454450e-02
 36 -3.84891741144574411e-03
 37 -1.13289034635175850e-02
 38 -3.27776654142564253e-02
 39  6.98935206415130794e-02
 40  1.26020483285426033e-01
 41 -2.24922089541410658e-01
 42 -1.88837902830301857e-01
 43  2.66426552251993951e-03
 44 -2.48033563932997933e-03
 45 -3.77403660002977122e-16
 46  5.43924253680471911e-03
 47 -4.90451208290622331e-03
 48 -7.04344568518671163e-16
 49 -8.69668528313818912e-03
 50  6.80783392044403187e-03
 51  1.01670513081277207e-15
 52 -1.07202895997636390e-02
 53  1.27022923006547758e-02
 54  2.05617726289159481e-15
 55  7.98158029048816851e-03
 56 -6.14046814988818829e-03
 57  4.81628957595979315e-16
 58 -9.76299519862026933e-04
 59 -6.04417570957973959e-16
 60 -2.64999218154819198e-16
 61  6.71193936996019236e-04
 62 -2.66634914079586990e-03
 Sym= A
 Ene= -6.98263158439848763e-01
 Spin= Alpha
 Occup=  2.00000000000000000e+00
  1 -1.40001456212820592e-15
  2 -2.03760348712633826e-15
  3  1.01793975662635157e-13
  4 -1.41376546907638252e-14
  5  2.40312490784801408e-01
  6  8.59929146935579162e-15
  7  1.59878200035177383e-13
  8 -2.04457944099446429e-14
  9  3.78578478991967449e-01
 10  5.01178650504058371e-15
 11  1.23397368210999015e-13
 12 -1.67187493841902570e-14
 13  2.95103684959779344e-01
 14 -6.44709073292579149e-16
 15 -1.47855687899028638e-03
 16 -3.01809660526469736e-02
 17 -2.00455848415422816e-15
 18 -1.22592222573867886e-14
 19  8.61601374205078461e-15
 20  1.49948477935418126e-14
 21  5.73924937699821713e-14
 22  2.18749869803022196e-14
 23  1.40115373687145994e-01
 24 -4.44830695058522022e-14
 25  9.96181153696437371e-14
 26  3.37457357635919542e-14
 27  2.36606095168967467e-01
 28 -5.17219817900298734e-14
 29  5.18691342944768681e-14
 30  6.76598128724244925e-15
 31  1.20431199559318233e-01
 32 -8.97963745283609121e-16
 33  5.03604462715299787e-03
 34  5.40759561851987119e-02
 35  1.98370868133608808e-15
 36  2.80531947855500847e-14
 37 -2.43601258307581703e-15
 38 -7.03690587414933120e-15
 39  1.50982328648288064e-14
 40  2.73374860801647535e-14
 41 -4.81816228822151475e-14
 42 -5.64151990119011097e-14
 43  3.47682155948745427e-16
 44 -7.32800057852541451e-15
 45 -1.24659221576255957e-02
 46  7.95491378472119489e-16
 47 -1.48786082641332558e-14
 48 -2.51563239334041157e-02
 49 -1.65385334064248642e-15
 50  2.13519573931189332e-14
 51  3.41688613950148837e-02
 52  3.00573888148442719e-15
 53  3.67807787770419963e-14
 54  6.82920882356668479e-02
 55  5.12851065289635810e-15
 56  6.46999578094894424e-15
 57  1.08640722215319254e-02
 58 -2.39557214595610612e-15
 59 -1.47668335466131055e-02
 60  9.94479689952084203e-03
 61 -5.30110701280205091e-15
 62 -6.22820674034642993e-15
 Sym= A
 Ene= -6.87160177245668802e-01
 Spin= Alpha
 Occup=  2.00000000000000000e+00
  1  2.70603080098877000e-03
  2  4.88154755029927313e-03
  3 -2.26436256509730677e-01
  4  2.86079605590111689e-02
  5  1.05274398299632904e-13
  6 -1.93577389970069728e-02
  7 -3.54661980896527396e-01
  8  4.25693062014003143e-02
  9  1.65475691370309931e-13
 10 -2.36660722595543769e-03
 11 -2.82485789133484821e-01
 12  2.64924624710603414e-02
 13  1.31929407093393115e-13
 14  1.07995126676112101e-03
 15 -1.14259655525461383e-15
 16 -1.37359743399192150e-14
 17  4.52698140471889058e-03
 18  2.78727709207509215e-02
 19 -1.91279209386038020e-02
 20 -3.31995238814783086e-02
 21 -1.32784558784419998e-01
 22 -4.89815037088416130e-02
 23  6.30725146528027500e-14
 24  9.35770343700757651e-02
 25 -2.26256560290153924e-01
 26 -7.48607676407065797e-02
 27  1.04425437299483013e-13
 28  1.14030284742361196e-01
 29 -1.19273229841944189e-01
 30 -2.51853655329606838e-02
 31  5.58971633930824155e-14
 32  1.85946993601440388e-03
 33  1.24296775799138951e-15
 34  2.33425208941852545e-14
 35 -1.51527362727986187e-03
 36 -6.00532881719621839e-02
 37  5.68014227054200720e-03
 38  1.64766935915679480e-02
 39 -3.54994790785858189e-02
 40 -6.32943909206741123e-02
 41  1.12591197245375904e-01
 42  1.28231152884277888e-01
 43 -1.67191197610560660e-03
 44  1.72987733321434863e-02
 45 -5.71954489529434822e-15
 46 -3.82098852488087400e-03
 47  3.51057479995764074e-02
 48 -1.07333028385470056e-14
 49  6.66618825835393544e-03
 50 -4.93787609454758719e-02
 51  1.51045098911258850e-14
 52 -2.10912087549447024e-03
 53 -8.85430416046592700e-02
 54  2.96903199936807919e-14
 55 -6.64012444517701837e-03
 56 -1.63449307643008974e-02
 57  4.21388922948445225e-15
 58  5.96146306908753101e-03
 59 -6.00632914707904536e-15
 60  4.24559556222378727e-15
 61  1.06524629972138650e-02
 62  1.51206827444612044e-02
 Sym= A
 Ene= -6.19550239732011399e-01
 Spin= Alpha
 Occup=  2.00000000000000000e+00
  1  1.88827241951292557e-03
  2  3.31914290467067493e-03
  3  8.96245197870072265e-03
  4  9.06867413387865279e-02
  5  1.91915028202760089e-15
  6 -9.18120881602189041e-03
  7  1.81788881543758392e-02
  8  1.26290375892912476e-01
  9  2.11079484050729440e-15
 10  5.43444376559165526e-02
 11  5.36384753812088177e-03
 12  8.58162989402922599e-02
 13  1.78629305287815578e-15
 14  4.85515191885198521e-03
 15  8.81796126717019543e-17
 16  3.35081758058380689e-16
 17  8.19590244369338902e-03
 18 -3.80838222197853963e-03
 19 -5.26276395241431078e-02
 20 -9.18328974376944884e-02
 21  2.83489471927507834e-02
 22 -1.52155040948206116e-01
 23 -5.76205953476129176e-16
 24  2.61277973446611467e-01
 25  6.11997743834321595e-02
 26 -2.54644948471229204e-01
 27 -7.15458794306947449e-16
 28  3.70863394805801161e-01
 29  4.06605093558896624e-02
 30 -1.35664364033586310e-01
 31 -1.75518658236799794e-16
 32  1.68328188634813336e-03
 33 -4.77190521422692770e-16
 34  2.98792808428372610e-15
 35  1.72467576565985478e-02
 36 -1.37013283694635765e-02
 37 -1.82392822374079465e-02
 38 -5.30075636594074251e-02
 39  1.15174198467722463e-01
 40  2.02937461350569087e-01
 41 -3.63215996661754859e-01
 42 -4.53472922724984573e-01
 43  4.63769934069816134e-02
 44 -2.01120560460960572e-02
 45 -4.35120561235934320e-16
 46  9.48186911341444838e-02
 47 -4.11617023072105778e-02
 48 -1.13442634193357583e-15
 49 -1.29770306428229037e-01
 50  6.01482596820741705e-02
 51  1.34940801711591007e-15
 52 -2.18005072372301961e-01
 53  8.70998886223292579e-02
 54  5.00366717688703499e-15
 55 -1.20919354144043440e-02
 56  1.05579764838048991e-02
 57  5.58323732930282294e-16
 58 -2.47026169458987033e-02
 59 -2.55168856999238169e-16
 60 -2.20069265693143697e-15
 61  3.67982816729159334e-02
 62 -2.93677284544300657e-02
 Sym= A
 Ene= -3.87021641666384142e-01
 Spin= Alpha
 Occup=  2.00000000000000000e+00
  1  6.75104054995482218e-16
  2  1.53345404137979342e-15
  3 -1.20416198934828101e-14
  4  2.38636844512071864e-15
  5  8.87886951126217600e-02
  6 -4.18533924851165576e-15
  7 -1.88396792134484150e-14
  8  4.17987133565131470e-15
  9  1.31174077368708203e-01
 10 -1.20709339739273440e-14
 11 -2.03793795735601895e-14
 12  2.53952248659088814e-15
 13  1.71286298077225840e-01
 14 -3.80326498767959465e-17
 15 -1.09118160841215907e-03
 16 -3.30970528492581084e-03
 17  8.01922509516926987e-16
 18  1.06103968175150278e-15
 19  5.57134718721958737e-16
 20  1.20274968542750633e-15
 21 -7.61530518939965867e-16
 22  3.37865775505727512e-16
 23 -3.12438742004913714e-02
 24 -3.07210066703413449e-15
 25  5.06383697738695289e-16
 26  2.76921446335952142e-15
 27 -7.00000482794086581e-02
 28 -2.73336834654818211e-15
 29 -2.58626806398623847e-15
 30  1.01064234581270983e-14
 31 -8.66408443696913833e-02
 32  2.46656366671540163e-16
 33 -2.76854753541610557e-02
 34  3.42430407100804621e-02
 35  3.17059677949453863e-15
 36 -1.75441742229844514e-15
 37 -1.55758688985139867e-16
 38 -3.40962849111115232e-16
 39  1.00539892294262229e-15
 40  6.61283315568287176e-16
 41 -8.33561550879791124e-16
 42  6.28402777801767802e-16
 43 -3.64779950684570883e-15
 44 -1.33750479280644231e-14
 45  9.09765201472872709e-02
 46 -7.34227465119913094e-15
 47 -2.63414984097729229e-14
 48  1.81092778427558443e-01
 49  1.04399124863218627e-14
 50  3.71094086915327535e-14
 51 -2.47821164758800200e-01
 52  2.05892455434085676e-14
 53  8.41518150505724666e-14
 54 -5.80385782188857280e-01
 55  1.10882561792866236e-14
 56  3.77503041741399394e-14
 57 -2.60274269408050984e-01
 58  3.28852495967250630e-15
 59  2.69742687780704614e-02
 60 -1.52696300494531249e-02
 61 -6.84310349877708718e-16
 62 -1.84609305158909110e-15
 Sym= A
 Ene= -3.75730475078354775e-01
 Spin= Alpha
 Occup=  2.00000000000000000e+00
  1  6.38725653713084068e-03
  2  1.06499415538301705e-02
  3 -9.19055504267248663e-02
  4  1.83907333217814377e-02
  5 -1.31901318717123347e-14
  6 -2.77056747011295533e-02
  7 -1.45433911299137242e-01
  8  2.72254469867972797e-02
  9 -2.04012861108404056e-14
 10 -9.45771188396311024e-02
 11 -1.53317402413898268e-01
 12  1.56178363700832500e-02
 13 -2.59443686908977602e-14
 14 -8.38817704184192351e-04
 15  8.14455924123598973e-17
 16  2.33594166587136673e-16