[Molden Format]
[Atoms] (AU)
O    1    8        -1.528963863185       2.433972183232       0.000000000000
C    2    6        -1.528963863185       0.318487190479       0.000000000000
S    3   16         1.338768845246      -1.337199060697       0.000000000000
[GTO]
  1 0
 s    6  1.00
     8588.5000000000         0.0018951500
     1297.2300000000         0.0143859000
      299.2960000000         0.0707320000
       87.3771000000         0.2400010000
       25.6789000000         0.5947970000
        3.7400400000         0.2808020000
 s    3  1.00
       42.1175000000         0.1138890000
        9.6283700000         0.9208110000
        2.8533200000        -0.0032744700
 p    3  1.00
       42.1175000000         0.0365114000
        9.6283700000         0.2371530000
        2.8533200000         0.8197020000
 s    1  1.00
        0.9056610000         1.0000000000
 p    1  1.00
        0.9056610000         1.0000000000
 s    1  1.00
        0.2556110000         1.0000000000
 p    1  1.00
        0.2556110000         1.0000000000
 d    1  1.00
        1.2920000000         1.0000000000

  2 0
 s    6  1.00
     4563.2400000000         0.0019666500
      682.0240000000         0.0152306000
      154.9730000000         0.0761269000
       44.4553000000         0.2608010000
       13.0290000000         0.6164620000
        1.8277300000         0.2210060000
 s    3  1.00
       20.9642000000         0.1146600000
        4.8033100000         0.9199990000
        1.4593300000        -0.0030306800
 p    3  1.00
       20.9642000000         0.0402487000
        4.8033100000         0.2375940000
        1.4593300000         0.8158540000
 s    1  1.00
        0.4834560000         1.0000000000
 p    1  1.00
        0.4834560000         1.0000000000
 s    1  1.00
        0.1455850000         1.0000000000
 p    1  1.00
        0.1455850000         1.0000000000
 d    1  1.00
        0.6260000000         1.0000000000

  3 0
 s    6  1.00
    93413.4000000000         0.0007430000
    13961.7000000000         0.0057930000
     3169.9100000000         0.0299540000
      902.4560000000         0.1190280000
      297.1580000000         0.3684320000
      108.7020000000         0.5772990000
 s    3  1.00
      108.7020000000         0.1431860000
       43.1553000000         0.6244650000
       18.1079000000         0.2833660000
 s    1  1.00
        5.5600900000         1.0000000000
 s    1  1.00
        2.1318300000         1.0000000000
 s    1  1.00
        0.4204030000         1.0000000000
 s    1  1.00
        0.1360450000         1.0000000000
 p    4  1.00
      495.0400000000         0.0083090000
      117.2210000000         0.0640240000
       37.7749000000         0.2776140000
       14.0584000000         0.7450760000
 p    2  1.00
        5.5657400000         0.6137120000
        2.2629700000         0.4438180000
 p    1  1.00
        0.8079940000         1.0000000000
 p    1  1.00
        0.2774600000         1.0000000000
 p    1  1.00
        0.0771410000         1.0000000000
 d    1  1.00
        0.6500000000         1.0000000000

[5D]
[9G]

[MO]
 Sym= A
 Ene= -9.19754354538753489e+01
 Spin= Alpha
 Occup=  2.00000000000000000e+00
  1 -7.48504734251231699e-07
  2  3.06027333174636359e-06
  3  2.02535389591178931e-06
  4 -3.00481650051605455e-06
  5  9.83973030511330852e-17
  6 -1.62518131914360645e-05
  7 -7.56608796053500954e-06
  8  2.16800018269244615e-05
  9 -4.95226884977129179e-16
 10 -4.28267015118641485e-05
 11  1.12219920681286591e-05
 12  2.09134854905042923e-05
 13 -1.99517471881701124e-16
 14  1.60473007995776050e-06
 15  4.59882856774674439e-17
 16  3.62299812560608750e-16
 17  8.65466726037395885e-06
 18  1.37530754404307801e-06
 19 -1.24993650531891813e-07
 20  2.76228035784632568e-06
 21  1.33668382248809687e-05
 22 -1.32728354888567969e-05
 23 -4.79453776703798587e-16
 24 -9.45703772158958467e-07
 25 -3.48490882471170295e-05
 26  5.76461388009602376e-05
 27 -1.47282688262119022e-16
 28  8.76213438822658232e-05
 29  1.53613094214024584e-05
 30  3.93888104244659848e-07
 31  4.59321831065604900e-17
 32  5.35985026004887773e-06
 33 -1.60804620975964538e-17
 34  1.33919809830989238e-16
 35 -3.03858360969930768e-05
 36  2.26429131904883842e-05
 37  4.11059583207901758e-01
 38  6.54983507788675867e-01
 39  1.22028094208867371e-02
 40 -1.36951849357816349e-03
 41  3.85144242599595168e-04
 42 -1.95323947457256273e-04
 43 -1.01634644343513844e-04
 44  3.26627684853670643e-05
 45 -8.48064371353690265e-16
 46  3.69079140017016937e-05
 47 -1.19130197279038428e-05
 48 -2.44116407027400499e-16
 49 -1.82306400291510766e-05
 50  4.33502410209126227e-06
 51  4.86015378993679134e-16
 52 -1.07227688028428920e-05
 53  9.00474860036061375e-06
 54 -3.99813780594795346e-16
 55  3.35336600545230138e-05
 56 -2.27404726245845586e-05
 57 -2.74023810373914614e-16
 58 -1.07014425470870157e-05
 59  5.47135697773097655e-17
 60 -1.45073531106678926e-16
 61  1.52299969833797194e-05
 62 -1.32892317074855698e-05
 Sym= A
 Ene= -2.07013590287506659e+01
 Spin= Alpha
 Occup=  2.00000000000000000e+00
  1  5.51452457342031299e-01
  2  4.71698194784399172e-01
  3 -3.14479179415006881e-04
  4 -1.72762368669254610e-03
  5  1.94769323818683561e-16
  6  5.48542740923532376e-03
  7  1.62767634041708454e-04
  8  4.47273153978981460e-04
  9 -3.52450862913057658e-16
 10 -9.55076056448369974e-04
 11 -8.48857457519115429e-05
 12  9.72252193644563195e-05
 13  2.26462425662511167e-16
 14 -7.59710425324455643e-05
 15 -3.13529930491517735e-17
 16  1.29552891386349112e-16
 17 -1.94225117080273554e-04
 18 -7.26358398781474693e-05
 19  1.25599254129899919e-05
 20 -7.08956321155691891e-05
 21 -5.03011368469845956e-06
 22  1.36634964252217223e-04
 23 -1.75744041757050759e-16
 24  3.18625891846813474e-04
 25 -3.53848261153610880e-05
 26  2.81530876800283091e-04
 27  5.64675604134069297e-16
 28  5.74964623738640455e-04
 29  8.10915328989468125e-05
 30  3.35820590775968042e-04
 31 -1.52377966000845599e-16
 32 -6.98151395461698616e-05
 33  2.00254536390107906e-16
 34  4.58433859430918868e-17
 35 -9.42148798399815817e-05
 36 -2.08424692249376368e-05
 37 -2.84968610706692694e-07
 38 -1.70290676167634321e-08
 39 -4.21368456749446609e-06
 40  1.58559551106520429e-05
 41 -1.80073707969613444e-05
 42 -6.84896750690113258e-05
 43  1.91374205277465580e-07
 44  2.20163301092327768e-06
 45  1.12754262640451660e-16
 46  6.58706998002925350e-07
 47  7.68608207944460562e-08
 48  5.13537404755743255e-16
 49 -4.58023441644419775e-06
 50  1.18766212302574396e-05
 51 -6.09988577543354008e-17
 52  2.49918938163361628e-05
 53 -7.91024887123776437e-05
 54  4.76206453399609629e-16
 55 -1.45661547701610112e-05
 56 -2.08453951065421368e-05
 57 -3.44522837764289784e-17
 58 -8.29359169283961509e-07
 59 -1.58287755494983460e-16
 60 -3.68415679898282410e-18
 61  9.72157723192554815e-06
 62  1.27649155074910131e-05
 Sym= A
 Ene= -1.14537333940807642e+01
 Spin= Alpha
 Occup=  2.00000000000000000e+00
  1 -3.47425127093084647e-04
  2 -4.91608300911476549e-04
  3  4.30642714256569811e-05
  4 -4.47370937319400042e-04
  5 -5.20132114702331408e-17
  6  9.13471750843787111e-04
  7  4.60931582163693007e-05
  8 -8.28332089145230677e-04
  9  3.07216832660790234e-16
 10 -2.93358695637535008e-04
 11  6.74653227970735950e-05
 12  1.26063334182063358e-04
 13  2.71920966360437827e-16
 14 -1.90031415882480022e-04
 15 -2.31096244119782040e-17
 16 -6.98452192668171576e-17
 17 -3.47283766309590099e-04
 18 -2.18471110511264103e-05
 19  5.63474395988924126e-01
 20  4.66771870079442763e-01
 21 -7.16984687814204618e-04
 22  1.10283849462552487e-03
 23 -1.40555373358283850e-16
 24  3.08946299830137761e-03
 25  5.83988512945895306e-04
 26 -4.51428648993469549e-05
 27  6.32415810579285012e-16
 28  1.04087276919610785e-04
 29 -2.54445834377238370e-04
 30  2.94935924654166569e-04
 31 -3.38496537440041059e-16
 32 -4.27709572440167609e-04
 33 -7.49126116118643310e-17
 34 -8.66534110734894784e-17
 35 -5.19724233452504235e-04
 36 -2.15437206001729744e-04
 37 -1.76555614432939780e-06
 38 -3.52057033089589315e-06
 39 -5.40483852018791879e-07
 40 -1.24622785727456396e-05
 41  5.98690096070629197e-05
 42  1.88295179309867246e-04
 43  7.56747621589280892e-06
 44 -1.01959614081812660e-05
 45  2.39318339074275440e-16
 46  3.48002306723058200e-05
 47 -2.87954574612801922e-05
 48 -3.57462696984922592e-16
 49 -9.80072787141844480e-05
 50  5.79980220627393674e-05
 51  6.60166572168403859e-16
 52  1.75543726408245915e-05
 53  5.31562391548811986e-05
 54 -1.22323825690055944e-15
 55 -9.42353173692324787e-05
 56  1.84293423428942021e-05
 57  4.90373861185809810e-16
 58  1.51347389952898541e-05
 59 -8.11153041896110752e-17
 60  4.68270948886800749e-16
 61 -2.36814943545989699e-05
 62 -1.08461130367024051e-05
 Sym= A
 Ene= -8.97674163468592923e+00
 Spin= Alpha
 Occup=  2.00000000000000000e+00
  1 -8.93636327527602472e-06
  2 -6.34869659887409509e-05
  3 -5.03569614842693078e-05
  4  4.65298751018209850e-05
  5  2.10783176928885822e-16
  6  4.67172597529330992e-04
  7  2.47352513103305774e-04
  8 -5.79983595953255339e-04
  9 -2.53644949422801926e-16
 10  1.43337015415127616e-03
 11 -5.83504118785272406e-04
 12 -7.68894268502503435e-04
 13 -3.58263385047433242e-17
 14 -4.54434218099535346e-05
 15  7.66739976403092575e-17
 16  2.31700228310179335e-16
 17 -2.50335843273418943e-04
 18 -3.68344666343806144e-06
 19  8.79974790448062420e-05
 20 -2.21331142199314355e-05
 21 -4.50432936756176873e-04
 22  4.75070523060245904e-04
 23 -2.09121935601518328e-16
 24  2.12471888817216698e-05
 25  1.36305845161535308e-03
 26 -1.79873653721319689e-03
 27 -2.05101356858929298e-16
 28 -2.96317450298135866e-03
 29 -2.03691164028794574e-04
 30 -1.95499378608176785e-04
 31 -4.53105434515061183e-16
 32 -3.11384465666884284e-04
 33  3.31438072764982021e-17
 34 -1.41075511982099441e-17
 35  9.67243791087316323e-04
 36 -7.93567945393817932e-04
 37  1.19771717651657936e-01
 38  3.24948359373127660e-01
 39 -5.33199805333826604e-01
 40 -5.86945853043742027e-01
 41 -3.59341450746505781e-02
 42  8.58779850616099572e-03
 43  1.43812733150862479e-03
 44 -5.38652702668892614e-04
 45 -2.73462150178600671e-15
 46  3.98764946117774119e-03
 47 -1.41680524579713149e-03
 48 -1.96987616904519971e-15
 49  4.49694828849709185e-04
 50 -1.47803664418636355e-04
 51 -1.38039463736459310e-15
 52  1.21494222385719786e-03
 53 -7.55023101949719782e-04
 54  1.05219654317152815e-15
 55 -1.34099383917174421e-03
 56  9.46091135995355960e-04
 57 -3.67397185614830622e-18
 58  5.38691752155908408e-04
 59 -7.09499685377004514e-17
 60  3.44189932831858834e-16
 61 -6.34903126603335376e-04
 62  7.21966061091464020e-04
 Sym= A
 Ene= -6.65916583275406193e+00
 Spin= Alpha
 Occup=  2.00000000000000000e+00
  1  4.79859073967799616e-06
  2  2.32739743221956393e-05
  3  1.75842938455476618e-06
  4 -2.74905132312358266e-05
  5 -8.14383426009740733e-17
  6 -1.56679518732973143e-04
  7 -5.84640614553261622e-06
  8  2.41069454132496316e-04
  9  5.67861750022327157e-17
 10 -3.69973583980767338e-04
 11 -2.43475369265018840e-04
 12  7.73066650441684252e-05
 13 -5.68105779748292329e-17
 14  9.20168914571366363e-06
 15  5.85150373686310363e-17
 16 -2.36362225930134011e-19
 17  7.16641698068917841e-05
 18  3.58526894963644442e-05
 19 -1.19351244485683817e-04
 20 -1.83786703218120689e-04
 21  2.60753641024082463e-04
 22 -2.33949400770268621e-04
 23 -6.92371946082769221e-17
 24  6.26232303602382713e-04
 25  7.21044236845028185e-05
 26  1.63801241790284015e-04
 27 -8.00860177201875490e-16
 28  7.90901964575655998e-04
 29  8.60130714569386917e-04
 30 -2.53216596649671302e-04
 31 -1.33261084720248645e-16
 32 -4.41151744002947499e-05
 33 -3.82322566935621248e-16
 34 -2.46652750328228281e-16
 35 -2.10142581980835832e-04
 36  1.35454522990747302e-04
 37  7.61259666888167001e-04
 38  2.11407500043085108e-03
 39 -4.28640724581965532e-03
 40 -2.92358397076744820e-03
 41  1.23565578912948983e-03
 42 -1.04593955923001458e-03
 43 -3.51226258889055509e-01
 44  1.29930455375265846e-01
 45 -7.14751537554055059e-13
 46 -6.70571918179267867e-01
 47  2.47478639888244339e-01
 48 -1.35706041470401983e-12
 49 -4.63259360707345691e-02
 50  1.65937143156365437e-02
 51 -8.56647134454832725e-14
 52  3.84661607110565497e-03
 53 -1.30026844703341922e-03
 54  4.94381601776579274e-15
 55 -9.04235328755232650e-04
 56  2.23531426939645758e-04
 57 -1.95035628284500110e-15
 58 -3.14372367713949884e-04
 59  4.63336300638160593e-16
 60 -2.76445405528075741e-16
 61  3.36513656129711904e-04
 62 -4.49092118611861221e-04
 Sym= A
 Ene= -6.65477060054787994e+00
 Spin= Alpha
 Occup=  2.00000000000000000e+00
  1 -2.09051734999583381e-16
  2 -5.23423258306384206e-16
  3 -4.99330702665053014e-16
  4  1.37943835106054725e-15
  5  6.16359107246243972e-06
  6  4.73941025569414493e-15
  7 -3.38701787124133057e-17
  8 -7.22971546590266148e-15
  9  6.88432345715605921e-06
 10  5.83228192396076946e-15
 11  1.69539516825063505e-16
 12  5.09439565482543623e-15
 13 -2.25026399111524303e-05
 14 -5.19103932033908808e-16
 15 -4.05052683455199713e-06
 16  7.39330573457913999e-06
 17 -1.09398926960872754e-15
 18  4.80126076852959019e-16
 19  1.87062183476703565e-15
 20  1.10420857403266534e-15
 21 -2.94755929879326906e-15
 22  2.48790009425874452e-15
 23 -1.50476441714109342e-06
 24 -3.83461083102098643e-15
 25 -2.81046405313701068e-15
 26 -1.66646094623205402e-14
 27  1.23160735262400043e-04
 28  5.13663852423190118e-15
 29  8.17964308277314660e-15
 30  5.66851867261648153e-15
 31 -1.09360478531895665e-04
 32  9.12570928147534489e-16
 33  3.88304581058426134e-05
 34 -5.99994084732427765e-06
 35  2.74459745905750462e-15
 36 -5.27882947967594376e-15
 37  1.73258744140513214e-15
 38  4.50344923477716689e-15
 39 -1.15973983229595211e-14
 40  3.72108533183419542e-15
 41 -1.52576868290181248e-14
 42 -8.98880650075402644e-15
 43 -1.32502321779230142e-11
 44 -3.39251071066913505e-11
 45  3.76146930087086107e-01
 46 -2.52356469614614154e-11
 47 -6.44519606663873530e-11
 48  7.15138980725757434e-01
 49 -1.64673684468820891e-12
 50 -4.04037708850218478e-12
 51  4.53433225118967873e-02
 52  1.18335738434751873e-13
 53  2.16002274245311175e-13
 54 -2.61983269583465975e-03
 55 -3.40110372072229125e-14
 56 -7.19092162528801884e-14
 57  8.49235505620811546e-04
 58  5.11539447953838667e-15
 59 -3.83889436307676725e-04
 60  1.82086676829754980e-04
 61  2.79723876474717676e-14
 62  3.41894938055339289e-14
 Sym= A
 Ene= -6.65468501742727980e+00
 Spin= Alpha
 Occup=  2.00000000000000000e+00
  1  8.45377578805946733e-07
  2  7.30004884608621603e-06
  3  4.02194321937188701e-06
  4 -1.13311277881194421e-05
  5  6.92894759606144464e-16
  6 -6.75359517391599856e-05
  7 -1.13115141806467234e-05
  8  6.92977196161182650e-05
  9  5.65126912167747700e-16
 10  6.43917334709364264e-05
 11  1.66492863814884251e-05
 12 -1.05682207517885751e-04
 13 -2.16863422699176840e-15
 14 -3.42056760988150977e-06
 15 -3.59528660702976920e-16
 16  8.99707661491976976e-16
 17  7.11734302222888696e-06
 18 -6.90684747582322798e-06
 19 -1.70707222274307071e-05
 20 -1.77154900663106479e-05
 21  3.54567771569851625e-05
 22 -2.05339103889946810e-05
 23 -3.41594029256431109e-16
 24  4.44982743666775976e-05
 25  3.14348170753049551e-05
 26  1.27648389585111006e-04
 27  1.18823656246838402e-14
 28 -1.81831467292733074e-04
 29 -1.11006646277416512e-04
 30 -1.01673660279890280e-04
 31 -1.08409127902553235e-14
 32  1.71172349460349229e-06
 33  3.79379120122101335e-15
 34 -4.98248860211899250e-16
 35 -2.14557007668798240e-05
 36  5.42922372917445571e-05
 37  9.38224706549894866e-07
 38  3.51437013206790011e-07
 39  4.23476298075604126e-05
 40 -1.28986093790012908e-04
 41  1.58693678320207844e-04
 42  1.20171560298294020e-04
 43  1.30039246186026081e-01
 44  3.53121538077545372e-01
 45  3.63994749558825731e-11
 46  2.47631395141285182e-01
 47  6.70895093538114828e-01
 48  6.92035396129659708e-11
 49  1.61103333603218497e-02
 50  4.20641220115108502e-02
 51  4.38722210825581945e-12
 52 -1.16426644209628749e-03
 53 -2.22537420963829545e-03
 54 -2.53063805117374222e-13
 55  3.20750069845181902e-04
 56  7.60760608876469616e-04
 57  8.15896558144005625e-14
 58 -5.82074393758300648e-05
 59 -3.73825709491669126e-14
 60  1.78653196167446399e-14
 61 -2.90185586102122280e-04
 62 -3.67639421354566535e-04
 Sym= A
 Ene= -1.57562636328749783e+00
 Spin= Alpha
 Occup=  2.00000000000000000e+00
  1  1.06441729636341534e-01
  2  1.77751188336939814e-01
  3 -3.18885410103166272e-03
  4  7.71751315922121761e-02
  5  1.68359148855368914e-15
  6 -5.01134649558126477e-01
  7 -4.04222009841640698e-03
  8  1.16396002091718243e-01
  9  1.35557407838985434e-15
 10 -3.26013985264727135e-01
 11 -1.43187280457386505e-03
 12  4.14721512430312605e-02
 13  5.87353386477823967e-16
 14  1.14274845852967953e-02
 15 -2.87610985144467030e-16
 16 -8.54484985715625448e-16
 17  2.02419816590642503e-02
 18  6.48509597763218719e-05
 19  6.49757734266327575e-02
 20  1.03050831525005798e-01
 21 -9.32067535269647581e-05
 22 -1.03478347384496974e-01
 23  2.04085946741933803e-16
 24 -2.64795530980517613e-01
 25 -2.24827571255513696e-03
 26 -1.22880408661378185e-01
 27  2.03312577029904670e-16
 28 -1.51823706804117223e-02
 29  4.65701728365122344e-03
 30  1.58513370248775931e-02
 31  1.33194121642680905e-16
 32  1.79203044545971808e-02
 33  4.85295055114076111e-16
 34 -3.96320653863434949e-17
 35  2.70791729526635438e-02
 36  2.49572509610797126e-03
 37 -1.45692377679775367e-03
 38 -4.12718656295812253e-03
 39  8.03624211696123657e-03
 40  1.71782030144070376e-02
 41 -3.03591590286948557e-02
 42 -8.17887772838939847e-03
 43 -2.38389790050121467e-03
 44  2.54074714094869227e-03
 45 -1.91836111673699398e-16
 46 -5.23855599273709196e-03
 47  5.34226788278230856e-03
 48 -2.00168752430572040e-16
 49  6.79017157821857134e-03
 50 -6.58941681355980965e-03
 51  5.38255514264981773e-17
 52  8.90375771362639234e-03
 53 -1.22069335806739097e-02
 54  1.56598580678545344e-16
 55 -2.80855812036681640e-03
 56 -1.18037147257420215e-04
 57  8.24872829593819380e-17
 58  2.99634356528509201e-03
 59  3.38160623347705977e-16
 60  7.33586985985640981e-16
 61 -4.45595171074861761e-06
 62  6.60100079619853862e-03
 Sym= A
 Ene= -1.00584666567070635e+00
 Spin= Alpha
 Occup=  2.00000000000000000e+00
  1  3.13920985228490212e-02
  2  5.28965689439571743e-02
  3  2.99691609234261115e-02
  4 -3.39225421409302397e-02
  5  5.89540846007220618e-16
  6 -1.54811069828164394e-01
  7  4.96132128300475830e-02
  8 -5.81289689661847603e-02
  9  6.80997037882463988e-16
 10 -1.42745381033258179e-01
 11  2.35444741558797493e-02
 12 -3.72199177411747517e-02
 13  5.28718269876818439e-16
 14 -1.73123896381212252e-03
 15 -7.57353486638045322e-17
 16 -7.60757229295083131e-17
 17 -3.25466541964580715e-03
 18 -6.74902933161288920e-03
 19 -5.35376949450108094e-02
 20 -9.10376936318807728e-02
 21  5.87494973587885660e-02
 22 -6.34636454591911980e-02
 23  2.44301666638186955e-16
 24  2.61306877829919126e-01
 25  1.12344303739398660e-01
 26 -1.20730259107723767e-01
 27 -1.13199585867771077e-15
 28  1.46397476596497017e-01
 29  3.16344829104701283e-02
 30 -3.95246697646055994e-02
 31  5.62818060453671734e-16
 32 -7.89235211762685102e-03
 33 -1.27027460012975913e-15
 34  4.66673290619666755e-16
 35  1.79764671871432656e-02
 36 -1.20279886280474681e-02
 37  2.61385729852814906e-02
 38  7.52848161147668671e-02
 39 -1.57504653105828285e-01
 40 -2.93153497601398749e-01
 41  5.25271733342662084e-01
 42  2.90788221693807580e-01
 43  1.67654976242423183e-02
 44 -1.12528165368524086e-02
 45 -3.25723113295996376e-16
 46  3.52904631834798088e-02
 47 -2.34294341992788910e-02
 48 -4.74845462987939602e-16
 49 -4.38125419413218156e-02
 50  3.14358867366372821e-02
 51  2.30135559561673776e-15
 52 -6.12668505811597985e-02
 53  4.54742977709645113e-02
 54  4.05641937796278226e-16
 55  2.35706378801849199e-03
 56  8.18742305901200111e-04
 57  1.12391330908513705e-15
 58 -1.51155509021120918e-02
 59  6.06752088582841131e-16
 60 -5.68254305767736421e-17
 61  1.41984892171112698e-02
 62 -2.36342991524789159e-02
 Sym= A
 Ene= -8.21033238147914846e-01
 Spin= Alpha
 Occup=  2.00000000000000000e+00
  1  5.29056839796260836e-02
  2  8.98542348452174705e-02
  3 -1.27274316535845779e-02
  4 -2.33598241908512055e-01
  5  2.53333535641585427e-16
  6 -2.77664782799299847e-01
  7 -2.11817415636770846e-02
  8 -3.45734204595750716e-01
  9  1.57688359612243117e-16
 10 -3.63601607800844495e-01
 11 -1.19754426458576931e-02
 12 -2.14814069177213435e-01
 13  1.64643519775251148e-15
 14 -1.26584256469734011e-02
 15 -5.00928790968299405e-16
 16  2.66295252448220477e-16
 17 -2.17932104908244162e-02
 18  4.28984806528420748e-03
 19 -5.20461498320457516e-02
 20 -8.64991700454961071e-02
 21 -2.62794936060722975e-02
 22  9.74020197496944101e-02
 23  4.92633288333277107e-16
 24  2.61254947902481383e-01
 25 -4.76724250936766819e-02
 26  1.36398091755726758e-01
 27  1.23687503854751637e-15
 28  9.82848926156711100e-02
 29 -7.93033705434740242e-03
 30  1.76477645247096631e-03
 31 -4.38849209882779279e-16
 32 -8.60072256485464384e-03
 33 -1.78318530549439402e-16
 34  7.28862552504942469e-17
 35 -1.75551641225424292e-02
 36 -3.84891741219583073e-03
 37 -1.13289034614742629e-02
 38 -3.27776654083211938e-02
 39  6.98935206286487587e-02
 40  1.26020483262823946e-01
 41 -2.24922089499284383e-01
 42 -1.88837902795130519e-01
 43  2.66426552076247511e-03
 44 -2.48033563828146258e-03
 45 -3.31386652238978002e-17
 46  5.43924253316753308e-03
 47 -4.90451208073911567e-03
 48  1.00977982693863716e-15
 49 -8.69668527855350752e-03
 50  6.80783391742803556e-03
 51 -2.16618920423371388e-15
 52 -1.07202895912686252e-02
 53  1.27022922952960086e-02
 54 -6.06428206629464581e-16
 55  7.98158028900675283e-03
 56 -6.14046815073542550e-03
 57  2.58482434120933163e-16
 58 -9.76299518199438355e-04
 59 -7.77345746291364983e-16
 60 -1.68294031973820135e-15
 61  6.71193935097459042e-04
 62 -2.66634913903984923e-03
 Sym= A
 Ene= -6.98263158471754686e-01
 Spin= Alpha
 Occup=  2.00000000000000000e+00
  1 -7.56366662740637100e-16
  2 -1.13023421729488498e-15
  3  2.00110399785476000e-14
  4 -1.79862286322964378e-15
  5  2.40312490782793764e-01
  6  4.11711477294244909e-15
  7  3.09094219924234841e-14
  8 -2.09713746430990651e-15
  9  3.78578478988793876e-01
 10  2.76357730576572748e-16
 11  2.56312371567293970e-14
 12 -9.76351018791838612e-16
 13  2.95103684943354760e-01
 14 -8.90097367715698719e-16
 15 -1.47855687923985129e-03
 16 -3.01809660545995298e-02
 17  3.62009045971259464e-16
 18 -2.03833252030806288e-15
 19  1.11011607254231598e-15
 20  2.32818824567599778e-15
 21  1.02799802201686035e-14
 22  3.90858715940052605e-15
 23  1.40115373694854994e-01
 24 -4.55062112117080642e-15
 25  1.50655665393798313e-14
 26  8.26866327770509944e-15
 27  2.36606095178068437e-01
 28 -9.71065832079538973e-15
 29  9.51866568225296673e-15
 30  7.74430507608339939e-16
 31  1.20431199551058007e-01
 32  5.51859563320269440e-16
 33  5.03604462831268480e-03
 34  5.40759561861523519e-02
 35 -8.69056998757767828e-16
 36  5.66068007901273141e-15
 37 -4.32595549803280111e-16
 38 -1.37860524464919849e-15
 39  2.94334452476264575e-15
 40  5.01905273682377352e-15
 41 -8.79800183409537873e-15
 42 -1.06353209617261626e-14
 43 -2.93401246140519978e-17
 44 -1.13996218271715713e-15
 45 -1.24659221583855659e-02
 46 -1.34122702268097036e-16
 47 -2.37081699006411495e-15
 48 -2.51563239350246284e-02
 49 -2.07428865005873459e-17
 50  3.15080986334029547e-15
 51  3.41688613971432298e-02
 52  5.31178638862666627e-16
 53  6.85868994058560324e-15
 54  6.82920882379463162e-02
 55  1.20047830657084772e-15
 56  8.78272696332121287e-16
 57  1.08640722195607522e-02
 58 -5.19069312797691550e-16
 59 -1.47668335491920513e-02
 60  9.94479690113288239e-03
 61 -1.07932655501546380e-15
 62 -6.25932034759772848e-16
 Sym= A
 Ene= -6.87160177273551498e-01
 Spin= Alpha
 Occup=  2.00000000000000000e+00
  1  2.70603080096615397e-03
  2  4.88154755026481632e-03
  3 -2.26436256506895084e-01
  4  2.86079605627212151e-02
  5  1.95233209739804644e-14
  6 -1.93577389971332919e-02
  7 -3.54661980890963791e-01
  8  4.25693062064662273e-02
  9  3.07106663950737806e-14
 10 -2.36660722303751875e-03
 11 -2.82485789119671538e-01
 12  2.64924624726137377e-02
 13  2.33478820821714933e-14
 14  1.07995126718596606e-03
 15 -9.08962089631275074e-16
 16 -2.51161833537703122e-15
 17  4.52698140580855366e-03
 18  2.78727709218840325e-02
 19 -1.91279209400881355e-02
 20 -3.31995238842966514e-02
 21 -1.32784558787468421e-01
 22 -4.89815037169252926e-02
 23  1.18117730498556385e-14
 24  9.35770343767091950e-02
 25 -2.26256560291191539e-01
 26 -7.48607676517307336e-02
 27  2.20314829943311286e-14
 28  1.14030284755240713e-01
 29 -1.19273229827829383e-01
 30 -2.51853655370442818e-02
 31  8.71031058597402394e-15
 32  1.85946993515559607e-03
 33  1.10122177862741540e-15
 34  4.43055159692927756e-15
 35 -1.51527362795206115e-03
 36 -6.00532881757174716e-02
 37  5.68014227138713673e-03
 38  1.64766935939996764e-02
 39 -3.54994790836414414e-02
 40 -6.32943909302875612e-02
 41  1.12591197261910303e-01
 42  1.28231152892951061e-01
 43 -1.67191197496150833e-03
 44  1.72987733323126044e-02
 45 -1.35120596135841262e-15
 46 -3.82098852260480707e-03
 47  3.51057479999718203e-02
 48 -3.06657980547118293e-15
 49  6.66618825562335059e-03
 50 -4.93787609459993976e-02
 51  4.47409686757748117e-15
 52 -2.10912088065662393e-03
 53 -8.85430416026789097e-02
 54  7.10117404668731297e-15
 55 -6.64012444349115858e-03
 56 -1.63449307618109031e-02
 57  1.45253333724561203e-15
 58  5.96146306888700045e-03
 59 -6.47062234019654054e-16
 60  5.09963578084154512e-16
 61  1.06524629993137651e-02
 62  1.51206827446397317e-02
 Sym= A
 Ene= -6.19550239730501828e-01
 Spin= Alpha
 Occup=  2.00000000000000000e+00
  1  1.88827242174271982e-03
  2  3.31914290838488876e-03
  3  8.96245197918570102e-03
  4  9.06867413211999013e-02
  5  1.30021549598393070e-15
  6 -9.18120882611515171e-03
  7  1.81788881556510518e-02
  8  1.26290375865209775e-01
  9  1.62146379684160094e-15
 10  5.43444376433502435e-02
 11  5.36384753832250000e-03
 12  8.58162989163409468e-02
 13  4.27829290727169687e-16
 14  4.85515191862730903e-03
 15 -7.11519742928944604e-18
 16 -1.42909347132397877e-16
 17  8.19590244301482938e-03
 18 -3.80838222226326673e-03
 19 -5.26276395235364056e-02
 20 -9.18328974371788315e-02
 21  2.83489471929421581e-02
 22 -1.52155040938524888e-01
 23  1.70472743465051101e-16
 24  2.61277973445863509e-01
 25  6.11997743806336134e-02
 26 -2.54644948452857400e-01
 27 -3.95899497369737593e-16
 28  3.70863394798588375e-01
 29  4.06605093543520382e-02
 30 -1.35664364027203554e-01
 31 -3.38350747961127142e-16
 32  1.68328188477870518e-03
 33 -1.59352112012016117e-15
 34  9.43670405383133900e-16
 35  1.72467576532195702e-02
 36 -1.37013283704857120e-02
 37 -1.82392822387014639e-02
 38 -5.30075636631204480e-02
 39  1.15174198475369430e-01
 40  2.02937461366126892e-01
 41 -3.63215996686292730e-01
 42 -4.53472922773351828e-01
 43  4.63769934117136268e-02
 44 -2.01120560469238395e-02
 45  1.38143064100679885e-15
 46  9.48186911437841340e-02
 47 -4.11617023088574063e-02
 48  2.64960491009387031e-15
 49 -1.29770306443235617e-01
 50  6.01482596848138817e-02
 51 -6.19853628255621602e-15
 52 -2.18005072386100562e-01
 53  8.70998886210707646e-02
 54 -6.14087533377605919e-15
 55 -1.20919354160076344e-02
 56  1.05579764832028841e-02
 57  1.60999866421338089e-17
 58 -2.47026169466612253e-02
 59 -1.76129400632750059e-15
 60 -3.85960986209550846e-15
 61  3.67982816754819989e-02
 62 -2.93677284549144005e-02
 Sym= A
 Ene= -3.87021641664204274e-01
 Spin= Alpha
 Occup=  2.00000000000000000e+00
  1 -1.11538989220130431e-15
  2 -2.09191128610619388e-15
  3  1.22108302417910689e-14
  4 -3.54397235069849082e-15
  5  8.87886951199571284e-02
  6  4.78383998504797620e-15
  7  1.92978356540426443e-14
  8 -5.60993000502076521e-15
  9  1.31174077380028037e-01
 10  2.01772546677577822e-14
 11  2.14298164832069103e-14
 12 -5.69109677155510469e-15
 13  1.71286298092646339e-01
 14 -5.39577292358087846e-16
 15 -1.09118160860902265e-03
 16 -3.30970528521945832e-03
 17 -4.59477171055185909e-16
 18 -8.14519451307351934e-16
 19  2.83466583625505458e-17
 20  2.29649075482375588e-16
 21 -8.88530262477670519e-16
 22  1.81890504294869374e-15
 23 -3.12438742023776368e-02
 24  1.80147546782660445e-15
 25 -2.64997930583695879e-15
 26  6.58426626688245314e-16
 27 -7.00000482872887991e-02
 28 -2.27633406957665940e-14
 29 -7.63034689741719090e-15
 30 -1.06385610708122677e-14
 31 -8.66408443795134431e-02
 32  2.86457599988254317e-16
 33 -2.76854753576277653e-02
 34  3.42430407148397870e-02
 35 -4.58353573269940422e-15
 36  1.99335635427701014e-15
 37  1.18929959765672738e-16
 38  6.39562231691592601e-17
 39 -5.00579436493174799e-16
 40  2.04877614414912756e-15
 41 -1.42556529624536705e-14
 42  2.75778802785550820e-14
 43  4.36768735114874503e-15
 44  1.44586654693326374e-14
 45  9.09765201462976597e-02
 46  8.12026506153530379e-15
 47  2.87007365893342409e-14
 48  1.81092778425777284e-01
 49 -1.03009013970711641e-14
 50 -3.84003597342312755e-14
 51 -2.47821164755405360e-01
 52 -3.26325484651744171e-14
 53 -9.58589089208697622e-14
 54 -5.80385782181268572e-01
 55 -1.50106663012683184e-14
 56 -3.37342898947043383e-14
 57 -2.60274269401565617e-01
 58 -1.83238175066078154e-15
 59  2.69742687823925319e-02
 60 -1.52696300517171906e-02
 61  2.57855482959773456e-15
 62  4.07317176422330605e-17
 Sym= A
 Ene= -3.75730475072985959e-01
 Spin= Alpha
 Occup=  2.00000000000000000e+00
  1  6.38725653847615951e-03
  2  1.06499415561963334e-02
  3 -9.19055504291819286e-02
  4  1.83907333240313567e-02
  5  1.54316115967166036e-14
  6 -2.77056747079885493e-02
  7 -1.45433911304724384e-01
  8  2.72254469903606966e-02
  9  2.25183913168132962e-14
 10 -9.45771188448227274e-02
 11 -1.53317402416092902e-01
 12  1.56178363658924773e-02
 13  2.95426901436913180e-14
 14 -8.38817704012231272e-04
 15 -4.09623901677836962e-16
 16 -7.33439106638386797e-16