[Molden Format]
[Atoms] (AU)
O    1    8        -0.000000000000       0.000000000000      -3.137653641108
C    2    6         0.000000000000      -0.000000000000      -1.014438886770
S    3   16        -0.000000000000       0.000000000000       1.950445074277
[GTO]
  1 0
 s    6  1.00
     8588.5000000000         0.0018951500
     1297.2300000000         0.0143859000
      299.2960000000         0.0707320000
       87.3771000000         0.2400010000
       25.6789000000         0.5947970000
        3.7400400000         0.2808020000
 s    3  1.00
       42.1175000000         0.1138890000
        9.6283700000         0.9208110000
        2.8533200000        -0.0032744700
 p    3  1.00
       42.1175000000         0.0365114000
        9.6283700000         0.2371530000
        2.8533200000         0.8197020000
 s    1  1.00
        0.9056610000         1.0000000000
 p    1  1.00
        0.9056610000         1.0000000000
 s    1  1.00
        0.2556110000         1.0000000000
 p    1  1.00
        0.2556110000         1.0000000000
 d    1  1.00
        1.2920000000         1.0000000000

  2 0
 s    6  1.00
     4563.2400000000         0.0019666500
      682.0240000000         0.0152306000
      154.9730000000         0.0761269000
       44.4553000000         0.2608010000
       13.0290000000         0.6164620000
        1.8277300000         0.2210060000
 s    3  1.00
       20.9642000000         0.1146600000
        4.8033100000         0.9199990000
        1.4593300000        -0.0030306800
 p    3  1.00
       20.9642000000         0.0402487000
        4.8033100000         0.2375940000
        1.4593300000         0.8158540000
 s    1  1.00
        0.4834560000         1.0000000000
 p    1  1.00
        0.4834560000         1.0000000000
 s    1  1.00
        0.1455850000         1.0000000000
 p    1  1.00
        0.1455850000         1.0000000000
 d    1  1.00
        0.6260000000         1.0000000000

  3 0
 s    6  1.00
    93413.4000000000         0.0007430000
    13961.7000000000         0.0057930000
     3169.9100000000         0.0299540000
      902.4560000000         0.1190280000
      297.1580000000         0.3684320000
      108.7020000000         0.5772990000
 s    3  1.00
      108.7020000000         0.1431860000
       43.1553000000         0.6244650000
       18.1079000000         0.2833660000
 s    1  1.00
        5.5600900000         1.0000000000
 s    1  1.00
        2.1318300000         1.0000000000
 s    1  1.00
        0.4204030000         1.0000000000
 s    1  1.00
        0.1360450000         1.0000000000
 p    4  1.00
      495.0400000000         0.0083090000
      117.2210000000         0.0640240000
       37.7749000000         0.2776140000
       14.0584000000         0.7450760000
 p    2  1.00
        5.5657400000         0.6137120000
        2.2629700000         0.4438180000
 p    1  1.00
        0.8079940000         1.0000000000
 p    1  1.00
        0.2774600000         1.0000000000
 p    1  1.00
        0.0771410000         1.0000000000
 d    1  1.00
        0.6500000000         1.0000000000

[5D]
[9G]

[MO]
 Sym= A
 Ene= -9.19856935317272786e+01
 Spin= Alpha
 Occup=  2.00000000000000000e+00
  1  9.92697776752044788e-07
  2 -4.71653906175358043e-06
  3  4.48082807525282857e-16
  4  5.37927384631535125e-16
  5  1.93936739778973351e-06
  6  3.45588977542736074e-05
  7 -7.00736726209071649e-16
  8 -1.08863131344811561e-15
  9 -6.64200190306967049e-07
 10 -1.40892822832066472e-04
 11  1.05844216079369475e-15
 12  9.25332748981841771e-16
 13 -5.08247983927704680e-05
 14 -2.37303524029438875e-06
 15  6.50906351938015887e-17
 16  1.19636940507906951e-16
 17  1.21383549612450869e-16
 18 -2.66875102479654838e-17
 19 -3.79552830130889468e-06
 20  1.34080153919116097e-05
 21  8.93792531064532897e-16
 22 -1.81833510533370032e-16
 23  2.30435804933142680e-05
 24 -1.19967260792255946e-05
 25 -8.42535394161958174e-16
 26  2.80905632923361937e-16
 27 -1.05973026645086375e-04
 28  8.13635391619347978e-05
 29 -3.92769197285225733e-17
 30 -9.15782605379320401e-16
 31 -7.55957924336387921e-05
 32 -4.57665160806447737e-05
 33  6.17908088941645440e-16
 34  4.59746254989807335e-16
 35  4.61700689335029379e-17
 36  1.11477872373604443e-16
 37  4.11055755142983537e-01
 38  6.54977842382736375e-01
 39  1.22333278176104659e-02
 40 -1.39904175537237572e-03
 41  4.15986133728624065e-04
 42 -1.37623905306401208e-04
 43 -3.62757040890665271e-16
 44 -1.52636365182789157e-17
 45 -1.23415913615380055e-04
 46  8.52890765380387349e-16
 47  2.79469671004002595e-16
 48  4.98060711955253634e-05
 49 -4.54444358014650240e-16
 50 -1.75903370787089807e-16
 51 -2.49109028260538667e-05
 52  1.66344805486067815e-20
 53  4.01332691211188698e-16
 54 -6.62375640469630903e-05
 55  1.45855002471721190e-16
 56  1.62323062926900790e-16
 57  3.75985829015028513e-05
 58  4.08705940919705849e-05
 59 -8.15976851673731309e-17
 60  1.55468308717592428e-17
 61  3.68934553319973116e-16
 62  4.02242245744277588e-16
 Sym= A
 Ene= -2.06639160601720207e+01
 Spin= Alpha
 Occup=  2.00000000000000000e+00
  1  5.51450588191659707e-01
  2  4.71678759995241004e-01
  3  6.96592997215659818e-16
  4  4.21474618547889478e-16
  5  1.91499438208229608e-03
  6  5.58555376682268959e-03
  7 -8.65656998526704142e-16
  8  1.22184357213582182e-16
  9 -5.68765270199806370e-04
 10 -1.29403555423316914e-03
 11  6.39654766947621825e-16
 12  2.42543141287537078e-16
 13 -9.02808545314307876e-05
 14  1.46491524954576666e-04
 15 -3.58424071164033756e-16
 16  2.93357591772267914e-16
 17 -2.93543064918221919e-16
 18 -2.61615418880268679e-16
 19  1.14911333295433378e-05
 20 -9.03099862537608348e-05
 21  1.40636099422556914e-16
 22 -1.74494153090113384e-16
 23 -1.33094647540668841e-04
 24  4.63170094333721497e-04
 25 -7.09386069105320991e-17
 26  5.34676426785488688e-17
 27 -3.41073942175127418e-04
 28  2.15100820408664314e-04
 29 -3.67933999590311069e-16
 30 -4.81133576424383361e-16
 31 -8.69689327224983967e-04
 32  8.86728946152261178e-05
 33 -5.50678865267709428e-16
 34  4.53501790789629893e-17
 35 -6.13151204751252109e-17
 36  2.26891592636648393e-16
 37 -6.35990896745246203e-08
 38 -2.50191606714190732e-06
 39  1.65026808602005207e-05
 40 -3.10148509736828348e-05
 41  5.80521837401613296e-05
 42  4.80183299810514001e-04
 43 -7.35605990070022024e-17
 44  3.06948414347691734e-16
 45  1.66332780485238311e-06
 46 -3.36422236021532070e-16
 47  2.18717925618961527e-16
 48 -1.67789359363793093e-05
 49  3.25411693091564118e-16
 50  4.39334884544382823e-16
 51  6.98948006010090636e-05
 52 -1.79314046333685629e-16
 53 -9.28667533686579810e-17
 54 -2.66706482484510533e-04
 55  6.09385966503836274e-16
 56 -3.16704636309956833e-16
 57 -4.42579481705902399e-05
 58  2.34851866696326149e-05
 59  3.53765599559276410e-16
 60  8.97976239989734219e-17
 61 -7.20088826568250447e-17
 62  7.90419736273694405e-18
 Sym= A
 Ene= -1.14358071207021048e+01
 Spin= Alpha
 Occup=  2.00000000000000000e+00
  1 -3.26570597521751627e-04
  2 -4.25600614687139992e-04
  3  5.05842606969367043e-17
  4 -1.38431308744224576e-16
  5  4.54472371146462666e-04
  6  5.09391697814901663e-04
  7  6.27703814332448081e-17
  8  4.93073368177685484e-16
  9  4.10455688397037832e-04
 10 -5.23957446524193297e-04
 11  1.38320258328228048e-16
 12  3.68587086376004182e-17
 13 -2.26031505247861742e-04
 14  2.66924291774293997e-04
 15 -2.41620495120789129e-16
 16  4.08360384935499600e-16
 17  3.11752230209391571e-16
 18  7.04508842219869842e-17
 19  5.63368818147478634e-01
 20  4.66645254546542265e-01
 21 -5.08050621109899515e-16
 22 -2.38168609353620753e-17
 23 -7.25410115936150120e-04
 24  3.71418054649807258e-03
 25  4.58077603490241099e-16
 26  1.72481314769676729e-16
 27  3.43835414555507778e-05
 28  9.07621811179788436e-04
 29  4.46305090441652500e-16
 30 -3.94450816898742772e-16
 31  5.37140588806793657e-05
 32  1.44327379763846213e-03
 33 -4.64897480256743243e-16
 34  3.38362169314367997e-16
 35  5.14056428139679880e-16
 36 -4.60053003303137392e-17
 37 -7.45606258464680990e-06
 38 -1.07280532947535349e-05
 39 -4.21900870363825509e-05
 40  1.36456653840009014e-04
 41 -1.51645409106267149e-04
 42 -3.30288109010132931e-04
 43  2.14216271609741762e-16
 44  1.49361518904109325e-16
 45  2.46793175067392420e-05
 46 -2.14939458912436712e-17
 47 -2.80072576959764004e-16
 48  1.50425919309217005e-05
 49  6.38845381696592880e-17
 50  7.07071676805301046e-16
 51 -4.25785301020466139e-05
 52 -8.77488718903567202e-17
 53 -1.16465862114546763e-16
 54  3.66622543551164189e-04
 55 -4.12902800577545779e-16
 56 -2.13051456660180519e-16
 57  1.86852557057770835e-05
 58 -2.33936169440190737e-04
 59  2.58312593149393233e-16
 60 -9.25383804951960082e-18
 61  7.56424289120723890e-16
 62 -2.61996270285386405e-16
 Sym= A
 Ene= -8.99030982323928107e+00
 Spin= Alpha
 Occup=  2.00000000000000000e+00
  1  2.04267027515829500e-06
  2  4.47244875269908515e-05
  3  1.23679978083054662e-16
  4  3.97723010543511982e-16
  5 -1.40893892677636408e-04
  6 -7.55056085469903117e-04
  7 -5.18365239766239657e-16
  8 -2.40056659231988353e-16
  9  7.23043242531967961e-04
 10  6.10529022599244544e-03
 11  1.61734694908391392e-16
 12  1.59621434390149390e-16
 13  1.85354958050626037e-03
 14  2.86701684770670118e-04
 15 -2.69287637017618227e-16
 16  4.18072126328013826e-16
 17  4.88687250915360531e-16
 18 -2.17502695929055384e-16
 19  2.35365581686572547e-04
 20  8.03253743719078376e-05
 21 -2.14685525267403125e-16
 22  4.26835777489821545e-16
 23 -6.78870286539612821e-04
 24 -9.86247214291207167e-05
 25 -2.05649150658202814e-16
 26 -4.94525896617762833e-16
 27  3.61496778366902916e-03
 28 -4.26091980592967472e-03
 29  7.90962580707596761e-17
 30  8.16778582372663025e-17
 31  3.36912122216417561e-03
 32  4.21524414155455371e-04
 33 -1.31437397989260877e-17
 34  1.30888332964151234e-16
 35  6.66176901777051629e-17
 36 -2.47448046055317081e-16
 37  1.19740930893604769e-01
 38  3.24876966542692491e-01
 39 -5.32963651474269939e-01
 40 -5.86711312763336768e-01
 41 -3.69807749670945374e-02
 42  6.96843745309547961e-03
 43 -1.85434738696939749e-15
 44  2.45165148650611221e-15
 45  1.42948424217269354e-03
 46 -2.26766344225244601e-15
 47  2.02948178062589414e-15
 48  4.02343659531944654e-03
 49 -2.82477485187859697e-16
 50 -4.99650898152304329e-16
 51  4.79061973613266966e-04
 52  6.18581956120737379e-16
 53 -3.90188789602644852e-16
 54  2.99610916745449759e-03
 55 -6.27524039082311848e-16
 56  2.21349278951049676e-16
 57 -1.72617016525750903e-03
 58 -1.49629123468908378e-03
 59  3.39500093936800219e-16
 60 -8.20586086053998119e-17
 61 -3.48945707985648080e-16
 62 -6.17647340787022538e-16
 Sym= A
 Ene= -6.67333609872050193e+00
 Spin= Alpha
 Occup=  2.00000000000000000e+00
  1  4.86185638182175160e-06
  2  9.45418604223919874e-06
  3  1.27828477769469537e-16
  4 -1.08056841537120189e-16
  5 -2.84622664030235894e-05
  6 -4.34545329007697166e-05
  7  8.75847305807142636e-18
  8  5.10363643578695017e-16
  9  5.92489137124092949e-05
 10  6.64259108117270830e-04
 11 -4.82610546050268669e-16
 12 -2.66239513238161655e-16
 13 -1.50251533851899897e-04
 14 -9.33921193342898690e-06
 15  1.43007946292500207e-16
 16 -1.16486075721990386e-16
 17  2.47756749698703058e-16
 18 -1.94231687341159449e-16
 19 -3.46385917300354813e-04
 20 -3.21598499985830170e-04
 21  1.63780379003424698e-16
 22  2.04068887708894419e-16
 23  4.83377755816215174e-04
 24  8.21511898932019780e-04
 25 -7.11933916770092739e-16
 26  1.82503333181250835e-16
 27  1.08921378640462621e-04
 28  6.51151757551309972e-04
 29  8.50959945910913994e-16
 30 -1.57539692238028043e-16
 31  1.58400254476927672e-03
 32 -1.77003806788664751e-04
 33 -2.29736042884533586e-16
 34 -6.19622741216434755e-17
 35 -2.71716799633286165e-16
 36  3.85528454912528743e-16
 37  7.56083698962783436e-04
 38  2.09673619512504772e-03
 39 -4.26920842723803838e-03
 40 -3.08437679570432600e-03
 41  1.78386277575830394e-03
 42 -1.60418290045126022e-03
 43  6.79597722873234384e-13
 44  1.14592227304377433e-12
 45 -3.74997639294872342e-01
 46  1.29197069630876346e-12
 47  2.17990722975120686e-12
 48 -7.14676060267700586e-01
 49  8.12898681141144587e-14
 50  1.41059703110200830e-13
 51 -4.83900463839314204e-02
 52 -4.11954111710727514e-15
 53 -9.04677943186662709e-15
 54  3.76620219280547923e-03
 55  1.35546047714855976e-15
 56  2.57628947067839671e-15
 57 -7.09987135923775738e-04
 58  8.68673282677266071e-04
 59 -1.50613865714709129e-16
 60 -1.47986485282374483e-15
 61  1.05002660144039167e-16
 62 -3.47413787006899903e-17
 Sym= A
 Ene= -6.66937777447044500e+00
 Spin= Alpha
 Occup=  2.00000000000000000e+00
  1  1.16266873182815527e-16
  2  2.95762960491622068e-16
  3  2.03419523394725675e-06
  4 -8.02992793814151538e-08
  5  8.21738368561555295e-17
  6 -1.79781137168602854e-15
  7  2.77044349786331748e-05
  8 -1.09362470296511657e-06
  9  1.40241954268830692e-15
 10  1.00084122292332777e-14
 11 -6.92468900450339113e-05
 12  2.73350131878340434e-06
 13  2.88979531184960252e-15
 14  8.47863707096512397e-16
 15 -1.24139993101153916e-05
 16  4.90039096907800059e-07
 17 -4.71196407305654552e-16
 18  6.22922296276979688e-16
 19  6.82078207393889392e-16
 20  9.80888876940658821e-16
 21  1.91575998185361042e-05
 22 -7.56240811976348069e-07
 23 -1.23415364035462619e-15
 24 -4.58696627385160898e-15
 25  1.78001630620790998e-04
 26 -7.02656381996087749e-06
 27  3.35849921576631978e-15
 28 -1.06376964435064736e-15
 29 -6.06323944284940350e-05
 30  2.39344655320883134e-06
 31  6.92328497708008880e-15
 32 -6.48727581134374718e-17
 33  3.66529052752407233e-05
 34 -1.44686302745745401e-06
 35 -1.88394514539250914e-16
 36  6.26305002393491380e-16
 37 -6.98298685546727118e-16
 38 -2.54989260375920860e-15
 39  5.90651545690524622e-15
 40  2.47376623402775482e-15
 41 -2.75450020135267208e-15
 42 -5.34818621043709178e-15
 43  3.75573003319854604e-01
 44 -1.48256376504531332e-02
 45  6.32214829263480574e-13
 46  7.14571606311904528e-01
 47 -2.82075112343999242e-02
 48  1.20309536864589131e-12
 49  4.58606064196758687e-02
 50 -1.81033441487672849e-03
 51  8.24134601199826966e-14
 52 -2.80065493904879930e-03
 53  1.10555058386120389e-04
 54 -2.30306289912096467e-15
 55  8.78611222524588553e-04
 56 -3.46829285007962457e-05
 57  1.88943735384069305e-15
 58 -2.66193449132092691e-15
 59 -3.76693456723326524e-04
 60  1.48698672302074931e-05
 61  3.23518901990145520e-16
 62 -3.47444158980795676e-16
 Sym= A
 Ene= -6.66937777447015279e+00
 Spin= Alpha
 Occup=  2.00000000000000000e+00
  1 -3.30154900785240927e-16
  2  4.58084138060477548e-17
  3  8.02992798776088145e-08
  4  2.03419523549979742e-06
  5  2.37824645783128193e-16
  6 -6.88230538156762050e-16
  7  1.09362470276293447e-06
  8  2.77044349769432560e-05
  9  8.04619349822116368e-16
 10  6.49793648896288918e-15
 11 -2.73350131911155549e-06
 12 -6.92468900433716532e-05
 13  1.16527657942263951e-15
 14  2.57144430319167023e-16
 15 -4.90039097776758560e-07
 16 -1.24139993110998014e-05
 17  1.91540439863172640e-16
 18 -3.63969517929556125e-16
 19  6.52340189838890179e-16
 20  1.51321851098151083e-15
 21  7.56240812723846916e-07
 22  1.91575998187488959e-05
 23 -1.71727136940355306e-15
 24 -5.21015792544835917e-15
 25  7.02656382075886215e-06
 26  1.78001630621275420e-04
 27  1.35998427043869569e-15
 28  6.11204761252348717e-15
 29 -2.39344655205806593e-06
 30 -6.06323944301197961e-05
 31  7.26731577902977593e-15
 32  6.73961175416177963e-16
 33  1.44686302712987884e-06
 34  3.66529052722401735e-05
 35  2.35288576182462594e-16
 36  1.01306692240576613e-16
 37 -2.78287810731684495e-15
 38 -7.78313042971574407e-15
 39  1.54825389260038416e-14
 40  1.07678188588194153e-14
 41 -2.16686262880210110e-15
 42 -9.69175434229702152e-15
 43  1.48256376504525104e-02
 44  3.75573003319869925e-01
 45  1.16845659453971283e-12
 46  2.82075112344000976e-02
 47  7.14571606311886320e-01
 48  2.22808680546017179e-12
 49  1.81033441487449677e-03
 50  4.58606064196782487e-02
 51  1.50939719929790583e-13
 52 -1.10555058385660132e-04
 53 -2.80065493903135882e-03
 54 -6.79490391195070877e-15
 55  3.46829285007995797e-05
 56  8.78611222518329562e-04
 57  5.44858625862886068e-15
 58 -3.63412043792947431e-15
 59 -1.48698672311068269e-05
 60 -3.76693456724196867e-04
 61 -5.90298350948783175e-16
 62  7.20087085565257458e-17
 Sym= A
 Ene= -1.54106008997271693e+00
 Spin= Alpha
 Occup=  2.00000000000000000e+00
  1  1.06161961614275990e-01
  2  1.76884914212360578e-01
  3 -7.30274238663350787e-16
  4 -1.43948105728380880e-15
  5 -7.51577794645043318e-02
  6 -4.91571754852164644e-01
  7  4.04443671431453401e-15
  8  3.33372152102810682e-15
  9 -1.12327781087633458e-01
 10 -3.49501041067830698e-01
 11 -2.61513785257000324e-15
 12 -7.13455566066277520e-16
 13 -4.24876847570261826e-02
 14 -2.22211840312556662e-02
 15 -5.67254565734890064e-16
 16  2.13724818779513845e-16
 17 -6.35757434260180279e-16
 18 -1.70975279070976982e-15
 19  6.52899718030847676e-02
 20  1.03716314329383955e-01
 21  2.80298547105627671e-15
 22 -5.43818652850081161e-16
 23  1.03650321172527829e-01
 24 -2.60526271885066663e-01
 25 -1.33925283465429753e-17
 26 -3.33090292240170420e-16
 27  1.19072747501937692e-01
 28 -4.60069646157173287e-02
 29  1.51529789556953807e-16
 30  6.30509945690128232e-16
 31 -5.05313803061010966e-02
 32 -4.15368060579996146e-02
 33  4.61145096593585340e-17
 34 -2.28900668898570671e-16
 35 -1.37797890433167148e-15
 36 -5.59619788756154248e-16
 37 -1.12875316861206108e-03
 38 -3.33236949578703855e-03
 39  7.62418952124330022e-03
 40  9.36231613757555585e-03
 41 -1.52229046578638005e-02
 42  2.90630978473681301e-02
 43 -2.42515737480570329e-16
 44  2.89047304469994939e-17
 45 -2.50109530915873643e-03
 46 -3.51504005412717048e-16
 47  4.47974377545818919e-18
 48 -4.58322694149609130e-03
 49  5.88115408316313184e-16
 50  1.40996370767947918e-16
 51  6.17609593629617117e-03
 52  1.02196184838589677e-16
 53 -1.02550783198799199e-16
 54 -9.22164332075671618e-03
 55  6.44898772602690670e-16
 56 -1.23975653085186894e-16
 57 -6.28213593960447701e-03
 58  2.30795372612366094e-03
 59 -1.39247329928744371e-16
 60  2.32650944776808345e-16
 61 -4.06795210918226055e-17
 62  6.06027253974324934e-16
 Sym= A
 Ene= -1.08916775239520192e+00
 Spin= Alpha
 Occup=  2.00000000000000000e+00
  1  2.24390761818960803e-02
  2  3.82926668962620745e-02
  3  1.02133317480255284e-15
  4 -2.16180529880115844e-16
  5  6.76732383237633843e-03
  6 -1.18275979027595624e-01
  7  2.33331893294976275e-15
  8  1.35977067228029680e-15
  9  7.58863504559521493e-03
 10 -7.25023325259307183e-02
 11 -1.03471960386620538e-15
 12 -1.03027335047413012e-15
 13  1.93305002503755957e-02
 14 -2.16553497690167348e-03
 15 -5.32905164031139376e-16
 16  1.41563269403117226e-16
 17  3.52109449524780100e-16
 18 -3.60960705538140965e-16
 19 -6.10088094435209949e-02
 20 -1.03917224661570759e-01
 21  1.08124203194140937e-16
 22 -2.53488488316019147e-16
 23  1.10734562758363908e-01
 24  2.91308292799445423e-01
 25 -1.14744909632887061e-15
 26  1.96416437132479126e-15
 27  1.82710431414563806e-01
 28  1.37803932123692047e-01
 29  3.79781501419263554e-15
 30  2.19178104252059686e-15
 31  5.46183819961291103e-02
 32  2.69492207746855443e-02
 33 -2.21767070219328484e-15
 34  1.98931235636165749e-15
 35  3.03659569552568514e-15
 36  4.65019830872241375e-16
 37  2.60491355774949869e-02
 38  7.50155895932843736e-02
 39 -1.56705658324088892e-01
 40 -2.88649414033702867e-01
 41  5.11251699895581280e-01
 42  2.40152709643295492e-01
 43  1.01086212312664846e-15
 44  1.08988654170647178e-17
 45  2.94515352034570889e-02
 46  2.98456670357833943e-15
 47 -9.25775867861350243e-17
 48  6.10884370939833096e-02
 49 -7.49132611110568884e-15
 50 -1.94789037289807353e-16
 51 -7.73010099951723234e-02
 52  2.24263753837604792e-15
 53  7.32333863181084169e-17
 54 -8.77086569492522838e-02
 55 -2.83373325396568996e-15
 56 -1.87552790358664950e-15
 57  2.77557749099827198e-03
 58  3.99750521607209058e-02
 59  8.18977762521408557e-16
 60  1.18090557707099703e-15
 61  8.70019765871001074e-16
 62 -2.71321637458948487e-15
 Sym= A
 Ene= -7.91065312236103768e-01
 Spin= Alpha
 Occup=  2.00000000000000000e+00
  1  5.60300308789238033e-02
  2  9.51988616780173047e-02
  3  4.77513636763248997e-15
  4 -1.15697385457231318e-15
  5  2.34765201710307819e-01
  6 -2.94561713944380077e-01
  7  1.35869003505280918e-14
  8  1.99871088765617782e-15
  9  3.46242576692867343e-01
 10 -3.65484684626716405e-01
 11  4.28225291141581598e-15
 12 -2.52853772578176932e-15
 13  2.23478649887187492e-01
 14  2.63181850555860575e-02
 15 -2.42729001430815641e-15
 16 -1.12580458560608364e-15
 17  1.01976096362420731e-15
 18 -7.39982607651630475e-16
 19 -5.41567215379261044e-02
 20 -9.02972060935651327e-02
 21 -1.57303272675714048e-15
 22  9.50866393358896436e-16
 23 -1.02019229810606640e-01
 24  2.69532281680695429e-01
 25  9.84946013977322979e-16
 26  1.90671715780582290e-15
 27 -1.41922063867877063e-01
 28  1.22471260438103399e-01
 29  2.97938255129231217e-15
 30  1.62062547518127303e-15
 31  3.53117361356948961e-02
 32  1.80546067993251659e-02
 33 -1.06957874537673748e-16
 34 -4.25529610578639685e-16
 35  1.00789283880108405e-15
 36  6.18843086510516335e-16
 37 -8.72221406654889037e-03
 38 -2.51983008279829356e-02
 39  5.34026946594317875e-02
 40  9.86652560439894716e-02
 41 -1.77582127872863205e-01
 42 -1.82849684283977715e-01
 43 -2.08469103903960382e-16
 44 -2.83266812559124235e-16
 45  6.11820515475959645e-03
 46 -1.66434964275945318e-15
 47 -2.43931202765520259e-16
 48  1.22560069093013597e-02
 49  3.36688708046388877e-15
 50  3.83631712997394817e-16
 51 -1.92901703517876430e-02
 52 -1.36493721047789623e-15
 53  1.82918053250692204e-15
 54 -1.84796907863530174e-02
 55 -3.74478827129028742e-17
 56 -1.87386506130529443e-16
 57  1.12761883051862438e-02
 58  9.15128155280945516e-04
 59  3.85026124718875192e-16
 60 -1.07152036129296870e-15
 61  3.09163479171760434e-16
 62  1.85047261034928059e-15
 Sym= A
 Ene= -6.79231208285239307e-01
 Spin= Alpha
 Occup=  2.00000000000000000e+00
  1 -5.34143435469666593e-16
  2 -2.06094750613740859e-15
  3  2.28283396104366432e-01
  4  1.19678307099446400e-02
  5 -6.28100632730803242e-15
  6  4.73489803910012609e-16
  7  3.61976524276165224e-01
  8  1.89767360983626385e-02
  9 -6.09576520500872256e-15
 10  2.46563130747356128e-14
 11  2.79860284587836960e-01
 12  1.46717657330407147e-02
 13 -1.52108895438129424e-15
 14 -3.18091329734940729e-16
 15  3.10150228520530945e-02
 16  1.62597258185518995e-03
 17 -4.12134334444901568e-16
 18 -7.02854316356141712e-16
 19  6.69729374157168044e-16
 20  8.13921388031947118e-16
 21  1.47946345287669256e-01
 22  7.75613489536254846e-03
 23  5.55563131609286075e-15
 24 -8.58944976763383776e-15
 25  2.49028858595478270e-01
 26  1.30554182757817942e-02
 27  5.37257893327842035e-15
 28  2.92914434608147201e-15
 29  1.34691372510080398e-01
 30  7.06123867001067548e-03
 31  9.72366889796451551e-15
 32 -1.28617668956463154e-15
 33 -4.10292857855809670e-02
 34 -2.15097354783922150e-03
 35  6.59185801405134166e-16
 36  1.09883245556618431e-15
 37 -2.04826383456788958e-16
 38 -6.35637083843206325e-16
 39  1.00933905965273349e-15
 40  3.87307106814949822e-15
 41 -8.51786423107536962e-15
 42 -6.70441015082833904e-15
 43 -1.95974003385237273e-02
 44 -1.02740003701024484e-03
 45  6.21884621116360076e-16
 46 -3.97071087501117692e-02
 47 -2.08165799007772835e-03
 48  1.47143754228500439e-15
 49  5.42783638752284830e-02
 50  2.84556074229293547e-03
 51 -1.77559040545288805e-15
 52  1.07949101426293576e-01
 53  5.65926647844652679e-03
 54 -2.94845447453638921e-15
 55  1.45444912148345977e-02
 56  7.62499645576446066e-04
 57  7.69029894685973913e-16
 58  6.63487988767488875e-16
 59 -2.92434780964355642e-02
 60 -1.53309877634797451e-03
 61 -3.07618902497363942e-17
 62 -1.21658277909802199e-15
 Sym= A
 Ene= -6.79231208285128951e-01
 Spin= Alpha
 Occup=  2.00000000000000000e+00
  1  1.06386615527026470e-15
  2  1.80557820616029140e-16
  3  1.19678307099448135e-02
  4 -2.28283396104395853e-01
  5  8.13717414881532034e-16
  6 -2.04843351540720388e-15
  7  1.89767360983629195e-02
  8 -3.61976524276081568e-01
  9  1.05533647988053801e-15
 10 -7.54779814879395832e-15
 11  1.46717657330329293e-02
 12 -2.79860284588047237e-01
 13  1.00986330919369462e-15
 14 -6.38507235500633121e-16
 15  1.62597258185462074e-03
 16 -3.10150228520521022e-02
 17 -1.62663194773720516e-15
 18  1.33320928833534212e-15
 19  5.61916461251728507e-16
 20  3.97923446456356779e-16
 21  7.75613489536530927e-03
 22 -1.47946345287590125e-01
 23 -3.18484593908833279e-15
 24 -1.28219079144664635e-15
 25  1.30554182757942668e-02
 26 -2.49028858595239322e-01
 27 -4.03255397567036739e-15
 28 -3.01380088573580411e-15
 29  7.06123866999691045e-03
 30 -1.34691372510271745e-01
 31 -8.66192354965500144e-15
 32  1.46555152440090259e-15
 33 -2.15097354784047614e-03
 34  4.10292857855645565e-02
 35  1.16278399635542397e-16
 36  7.38237768650797239e-17
 37  3.72561373372689390e-16
 38  1.19217443117075537e-15
 39 -2.35442751975414354e-15
 40 -4.93360594414121373e-15
 41  8.81474949581804402e-15
 42  1.35824962439270151e-14
 43 -1.02740003701015138e-03
 44  1.95974003385189360e-02
 45 -1.34822401967919562e-15
 46 -2.08165799007714071e-03
 47  3.97071087501038311e-02
 48 -2.77481060395316788e-15
 49  2.84556074228999815e-03
 50 -5.42783638752378991e-02
 51  3.67151815327749508e-15
 52  5.65926647845193739e-03
 53 -1.07949101426194807e-01
 54  6.47266557644936658e-15
 55  7.62499645580768672e-04
 56 -1.45444912147823582e-02
 57 -3.08438953921802397e-16
 58 -2.77566514538606782e-15
 59 -1.53309877634717046e-03
 60  2.92434780964306341e-02
 61 -6.30266162342145072e-16
 62  3.29077751193699121e-16
 Sym= A
 Ene= -6.34485483911853221e-01
 Spin= Alpha
 Occup=  2.00000000000000000e+00
  1  1.62864245827825001e-03
  2  2.43649166002959505e-03
  3  4.52779257992086117e-15
  4  6.11979629243948810e-15
  5  7.71409488323309689e-02
  6 -6.26425312450940019e-03
  7  6.88359634873255369e-15
  8  8.65269681237314303e-15
  9  1.17189000447659397e-01
 10 -4.28859104287160481e-02
 11  6.13941870923402722e-15
 12  8.99405515360129848e-15
 13  7.66277899308290961e-02
 14  1.11718406394233950e-02
 15 -1.23629315418452031e-16
 16  1.10998732798916787e-16
 17 -4.43488944124352441e-16
 18  9.34197299701814120e-17
 19  4.05032480124414077e-02
 20  7.16585215670056952e-02
 21  9.73246692563365639e-16
 22  3.60361674340981475e-15
 23 -1.35872074619834970e-01
 24 -2.06652779936228492e-01
 25  4.04952385945238427e-15
 26  3.91218521141340075e-15
 27 -2.11193743069760936e-01
 28 -2.77076043561568341e-01
 29  7.68555345189312574e-16
 30  3.94965581499022871e-16
 31 -9.21074665115385327e-02
 32 -9.44426973926720120e-03
 33 -1.47167821460661674e-17
 34 -2.57416809762242818e-15
 35 -2.21292450708885679e-15
 36  1.10978508058648740e-16
 37  1.95313630951984250e-02
 38  5.67069129409802572e-02
 39 -1.22694397244788561e-01
 40 -2.19646803062831047e-01
 41  3.89352064216663019e-01
 42  5.18952546906589096e-01
 43  8.71207845476335518e-16
 44  2.88019240341554568e-16
 45 -6.75017353029522676e-02
 46  3.35439088693473491e-15
 47  1.34530071805914669e-16
 48 -1.37430410262443709e-01
 49 -8.42060545126834497e-15
 50 -6.24683875398382861e-16
 51  1.94102207179758290e-01
 52  5.08984837703797340e-16
 53 -2.61941763934867493e-15
 54  3.08575005895285026e-01
 55 -4.17001459728616865e-15
 56 -1.16909055067307045e-15
 57  2.75706688335843296e-02
 58 -5.74450120090671812e-02
 59 -3.01174296577073659e-15
 60  2.50977139483611523e-15
 61 -3.27483502984144753e-15
 62 -7.10486504830200365e-15
 Sym= A
 Ene= -4.16018129222380018e-01
 Spin= Alpha
 Occup=  2.00000000000000000e+00
  1  6.04574772626636516e-17
  2 -6.00350990186867740e-16
  3  1.16836687344759271e-01
  4  3.11397364760876330e-04
  5 -2.57820458277605155e-15
  6 -8.79387520328060558e-16
  7  1.68289834398360094e-01
  8  4.48532153202630562e-04
  9 -2.03925823740288314e-16
 10  1.60592877509897146e-14
 11  2.17647674718940559e-01
 12  5.80082454359519186e-04
 13  1.49903875279482279e-15
 14  5.95981762162211487e-16
 15  3.90012362150064058e-03
 16  1.03947505325440617e-05
 17 -5.85074177026188147e-16
 18 -1.72688988659229460e-16
 19 -1.62696133679980698e-16
 20  3.58540446373592093e-16
 21 -4.21543234925469620e-02
 22 -1.12351227576044539e-04
 23  1.32775940376681636e-15
 24  1.33270684149401173e-15
 25 -8.92127597106307235e-02
 26 -2.37773073751826330e-04
 27  7.23884869237084406e-15
 28 -1.28318972129574078e-14
 29 -9.32720256409034082e-02
 30 -2.48591976132139249e-04
 31  2.64411177176359555e-15
 32 -2.39686820331550169e-15
 33 -6.38534507620915348e-02
 34 -1.70184526367486960e-04
 35 -6.12317736074899352e-17
 36 -2.41722631112271178e-16
 37 -2.66463026373706904e-17
 38 -5.74374318500351669e-16
 39  2.69992500192783306e-15
 40 -4.38394116699948924e-15
 41  1.33320718847933265e-14
 42 -1.85364667982183713e-14
 43  8.71410693597951258e-02
 44  2.32251529701049485e-04
 45  1.17042147356666274e-15
 46  1.73707778652254091e-01
 47  4.62972254178306249e-04
 48  1.98191123045077373e-15
 49 -2.36474721188881964e-01
 50 -6.30260979529450173e-04
 51 -4.26426701550992513e-15
 52 -5.51893852818351349e-01
 53 -1.47092745695221253e-03
 54 -7.37981425928067001e-16
 55 -2.21108295358979773e-01
 56 -5.89305825635856487e-04
 57 -4.50346741037266604e-15
 58  1.54030207957318584e-15
 59  4.00457689736665734e-02
 60  1.06731431811699155e-04
 61  5.72209457063747847e-17
 62  3.66274673914923915e-15
 Sym= A
 Ene= -4.16018129222300359e-01
 Spin= Alpha
 Occup=  2.00000000000000000e+00
  1 -2.40648622342301111e-16
  2  7.91594798746781383e-17
  3 -3.11397364759378504e-04
  4  1.16836687344721704e-01
  5  4.16203400961233588e-16
  6  8.11575502346584784e-17
  7 -4.48532153197904037e-04
  8  1.68289834398267446e-01
  9  7.37392740185517737e-16
 10  4.74585240217923925e-15
 11 -5.80082454352258176e-04
 12  2.17647674718983747e-01
 13  1.05895523888413340e-15
 14  2.50648692206751883e-16
 15 -1.03947505319821468e-05
 16  3.90012362149936122e-03