[Molden Format]
[Atoms] (AU)
H    1    1        -0.803395468402      -1.507773695420       0.000000000000
O    2    8         0.116970499936       0.010233551479       0.000000000000
H    3    1        -1.053011248685       1.345359807173       0.000000000000
[GTO]
  1 0
 s    3  1.00
       33.8650000000         0.0254938000
        5.0947900000         0.1903730000
        1.1587900000         0.8521610000
 s    1  1.00
        0.3258400000         1.0000000000
 s    1  1.00
        0.1027410000         1.0000000000

  2 0
 s    6  1.00
     8588.5000000000         0.0018951500
     1297.2300000000         0.0143859000
      299.2960000000         0.0707320000
       87.3771000000         0.2400010000
       25.6789000000         0.5947970000
        3.7400400000         0.2808020000
 s    3  1.00
       42.1175000000         0.1138890000
        9.6283700000         0.9208110000
        2.8533200000        -0.0032744700
 p    3  1.00
       42.1175000000         0.0365114000
        9.6283700000         0.2371530000
        2.8533200000         0.8197020000
 s    1  1.00
        0.9056610000         1.0000000000
 p    1  1.00
        0.9056610000         1.0000000000
 s    1  1.00
        0.2556110000         1.0000000000
 p    1  1.00
        0.2556110000         1.0000000000
 d    1  1.00
        1.2920000000         1.0000000000

  3 0
 s    3  1.00
       33.8650000000         0.0254938000
        5.0947900000         0.1903730000
        1.1587900000         0.8521610000
 s    1  1.00
        0.3258400000         1.0000000000
 s    1  1.00
        0.1027410000         1.0000000000

[5D]
[9G]

[MO]
 Sym= A
 Ene= -2.05419322443862988e+01
 Spin= Alpha
 Occup=  2.00000000000000000e+00
  1  2.08359738044882020e-04
  2 -4.71905457788536573e-05
  3  1.09125859627733426e-04
  4  5.51433235136718158e-01
  5  4.71665874978319022e-01
  6 -1.81643550561724938e-03
  7 -1.58916844877585043e-04
  8  3.99231773708001200e-16
  9  5.59508350664614674e-03
 10  5.81110794747634698e-04
 11  5.08403991146418564e-05
 12 -5.39225154564791821e-16
 13 -2.87850646261907355e-04
 14 -1.81271475188665265e-04
 15 -1.58591345249736379e-05
 16  1.90201354253164345e-16
 17  9.68101316256529936e-05
 18  1.18809008187717098e-18
 19  1.62802966188616156e-16
 20  5.41299354083445286e-05
 21  9.54451968408656475e-06
 22  2.08359744345096819e-04
 23 -4.71905535909065282e-05
 24  1.09125868547707561e-04
 Sym= A
 Ene= -1.35287769593346940e+00
 Spin= Alpha
 Occup=  2.00000000000000000e+00
  1  9.84656397752674828e-02
  2  3.27261006280068420e-02
  3 -2.48919682776324591e-03
  4 -1.13597616360524109e-01
  5 -1.90543813430391784e-01
  6 -3.60218189335589148e-02
  7 -3.15148589072496935e-03
  8 -1.74589415953628088e-16
  9  5.42796132950484678e-01
 10 -8.08111802785564937e-02
 11 -7.07002977565673874e-03
 12 -2.81719153538705258e-16
 13  4.47563812584847620e-01
 14 -5.23571746110215591e-02
 15 -4.58063930741353653e-03
 16 -1.00520031320326603e-16
 17 -1.59877786156727812e-02
 18  5.23745763204038789e-16
 19 -3.91869116429887324e-17
 20 -4.73665676704905503e-03
 21 -8.35197401101364124e-04
 22  9.84656441603058569e-02
 23  3.27261010483195780e-02
 24 -2.48919684319737211e-03
 Sym= A
 Ene= -7.26687431119745320e-01
 Spin= Alpha
 Occup=  2.00000000000000000e+00
  1  1.55464001614327274e-01
  2  1.76633015273720467e-01
  3  5.13363260603200977e-02
  4 -1.08960817983300845e-09
  5 -1.83162834595587687e-09
  6  1.94025893559361569e-02
  7 -2.21773493256928023e-01
  8 -1.08210560149499037e-15
  9  4.79101445668983494e-09
 10  3.24109181648668671e-02
 11 -3.70459974889909949e-01
 12 -9.71283317479999291e-16
 13  1.08534177478691873e-08
 14  2.07494148287625350e-02
 15 -2.37167854757515811e-01
 16 -1.66052920513941019e-15
 17  2.30021696785362439e-10
 18 -2.81110299392531205e-17
 19  1.08254244149220302e-16
 20 -7.14719744595591119e-03
 21  4.05339424158539241e-02
 22 -1.55464003812725016e-01
 23 -1.76633017122577063e-01
 24 -5.13363249753069628e-02
 Sym= A
 Ene= -5.69209720244817641e-01
 Spin= Alpha
 Occup=  2.00000000000000000e+00
  1  8.77840579596427112e-02
  2  9.66648955380016162e-02
  3  3.07654815498855302e-02
  4  3.82224612670809052e-02
  5  6.47518298333532444e-02
  6 -2.54111896302144535e-01
  7 -2.22318196726630050e-02
  8 -8.95906730981835959e-15
  9 -1.99653310271775020e-01
 10 -3.87498729281756049e-01
 11 -3.39016086845026696e-02
 12 -1.32922091080139504e-14
 13 -2.63432236267788167e-01
 14 -3.88965401459330284e-01
 15 -3.40299247366936189e-02
 16 -1.44138234139483938e-14
 17 -1.80052453518866548e-02
 18  5.71187049648136735e-16
 19 -4.42840327721674553e-17
 20  1.54632664999196506e-02
 21  2.72657981742997595e-03
 22  8.77840548550472971e-02
 23  9.66648897160071602e-02
 24  3.07654776270525759e-02
 Sym= A
 Ene= -5.00194965138268777e-01
 Spin= Alpha
 Occup=  2.00000000000000000e+00
  1  2.89334997183771614e-15
  2  4.93663864258896412e-15
  3  1.93496377681693234e-15
  4  1.23745807086335358e-15
  5  1.97473183923291728e-15
  6 -6.76413498859364916e-15
  7 -1.08416718355163258e-15
  8  2.91857178382883997e-01
  9 -6.25195827687167135e-15
 10 -1.10354594461387733e-14
 11 -1.94517267071048395e-15
 12  4.39238724019623772e-01
 13 -1.00006532340487520e-14
 14 -1.11255953783329145e-14
 15 -1.49825435881811305e-15
 16  4.89354945315556344e-01
 17 -8.97506043232505852e-16
 18 -2.18039536516993517e-02
 19 -1.90759041450053223e-03
 20  2.10769832592209337e-16
 21  6.27622997633793357e-16
 22  2.80867125934198717e-15
 23  3.06014233716346172e-15
 24  2.27411606256044004e-15
 Sym= A
 Ene=  1.50154333700211251e-01
 Spin= Alpha
 Occup=  0.00000000000000000e+00
  1  3.44388557244244622e-02
  2 -5.14838246702701424e-02
  3  8.42547810242153750e-01
  4  3.37467195750922530e-02
  5  5.50733395545651566e-02
  6  7.16196229792644273e-02
  7  6.26588245790852053e-03
  8 -4.97159877743598274e-16
  9 -1.02927488945337833e-01
 10  1.17462117499000651e-01
 11  1.02765650156210059e-02
 12 -1.24398236071793809e-15
 13 -8.72534082226156138e-01
 14  2.06623880942688770e-01
 15  1.80771846224691002e-02
 16 -7.11805257008947586e-16
 17  6.24972672806180674e-03
 18 -2.14768011620840775e-16
 19  2.78707058969369999e-17
 20 -2.81418597932540709e-03
 21 -4.96214657938089240e-04
 22  3.44388533927678653e-02
 23 -5.14838256913793257e-02
 24  8.42547774678014338e-01
 Sym= A
 Ene=  2.16563918509464243e-01
 Spin= Alpha
 Occup=  0.00000000000000000e+00
  1  2.18690501002262241e-02
  2 -1.09829946803580089e-01
  3  1.56553443652404090e+00
  4 -5.39434619369061341e-10
  5 -8.68348795646234350e-10
  6 -1.03756514924765141e-02
  7  1.18594734520803630e-01
  8  1.57698575350974732e-16
  9  1.13480287666778423e-09
 10 -1.19537833643105010e-02
 11  1.36632932753874281e-01
 12  2.02944459342926332e-16
 13  1.98026828268638155e-08
 14 -4.45966639719188526e-02
 15  5.09744349910058236e-01
 16 -2.90509619607289837e-16
 17 -3.40229113111878423e-10
 18  1.54691319995441156e-17
 19 -1.97949279878244643e-16
 20  1.80814904762187584e-03
 21 -1.02545681233799906e-02
 22 -2.18690488791695864e-02
 23  1.09829954152091347e-01
 24 -1.56553447004780866e+00
 Sym= A
 Ene=  5.77942784119506836e-01
 Spin= Alpha
 Occup=  0.00000000000000000e+00
  1  7.92203810120575003e-02
  2  1.49074841405917180e+00
  3 -7.27402183084479792e-01
  4  5.17704347414386229e-09
  5  8.99232307062861058e-09
  6 -1.09458526335802341e-02
  7  1.25112375618283256e-01
  8  2.73520783555521936e-16
  9 -2.26972713020245909e-08
 10 -1.58751164773111193e-02
 11  1.81454467413905834e-01
 12 -3.69287361225838880e-16
 13 -1.56598313282019230e-07
 14 -1.03639637185808514e-01
 15  1.18461295769251262e+00
 16 -2.29335871457453506e-16
 17 -1.87930771595665180e-09
 18  2.65085181264153165e-16
 19  4.33253764396157843e-17
 20 -3.23291718381912970e-03
 21  1.83348420931979256e-02
 22 -7.92203570270539892e-02
 23 -1.49074791259309403e+00
 24  7.27401978720757958e-01
 Sym= A
 Ene=  6.10013317275053590e-01
 Spin= Alpha
 Occup=  0.00000000000000000e+00
  1  6.97347339325622706e-02
  2  1.73529404377172236e+00
  3 -6.07096826670509015e-01
  4  3.37805359075760842e-02
  5  5.86619861044003141e-02
  6  9.97961127178472601e-02
  7  8.73097341703722718e-03
  8  5.84837268953212987e-16
  9 -1.42371283839039853e-01
 10  1.61766432433312873e-01
 11  1.41526432495256774e-02
 12  2.16990057564997476e-15
 13 -1.29529326289236058e+00
 14  9.85248982267990514e-01
 15  8.61975419963008499e-02
 16 -4.24139701858618179e-15
 17 -1.22145309154651372e-02
 18 -4.94890129227662593e-17
 19  1.37602165435795101e-16
 20 -2.07362622540930436e-02
 21 -3.65635007443430035e-03
 22  6.97347566106491790e-02
 23  1.73529454967465480e+00
 24 -6.07097026893392400e-01
 Sym= A
 Ene=  1.00325384435561360e+00
 Spin= Alpha
 Occup=  0.00000000000000000e+00
  1 -5.79086347688983044e-15
  2 -4.22832485710689109e-14
  3 -9.63175965873224630e-15
  4 -3.12275885766869642e-15
  5 -5.13495387768284064e-15
  6  3.06052683300477860e-14
  7  3.14729819459827575e-15
  8  2.40825686397965200e-01
  9  2.23108556358542573e-14
 10  1.12662370946899544e-13
 11  1.26792113255472708e-14
 12  8.38560808874569741e-01
 13  3.96868247785042312e-14
 14 -1.85379210855131045e-13
 15 -2.21308477663365772e-14
 16 -1.13585297135495589e+00
 17  1.59857521133904949e-15
 18 -8.65238133032178967e-03
 19 -7.56981844131343271e-04
 20  1.39462245654321735e-15
 21  6.17462611267067205e-16
 22 -6.59174431556595338e-15
 23 -3.83413527416475108e-14
 24 -6.00823308834436599e-15
 Sym= A
 Ene=  1.01603307269914622e+00
 Spin= Alpha
 Occup=  0.00000000000000000e+00
  1  4.84111512594485455e-02
  2  2.42595684944759499e-01
  3  7.86062384537108555e-02
  4  2.05004833725054986e-02
  5  3.71430840926352604e-02
  6 -2.26542691359561232e-01
  7 -1.98198320814945948e-02
  8  3.27412511466587243e-14
  9 -1.57339692629822669e-01
 10 -8.34297412702254104e-01
 11 -7.29912521223070182e-02
 12  1.14428994259923675e-13
 13 -2.59158296407905886e-01
 14  1.33699096479496427e+00
 15  1.16971046955905544e-01
 16 -1.54542474767381257e-13
 17 -1.77209344785396739e-02
 18 -1.15006120162748294e-15
 19 -2.51898503280590719e-16
 20 -3.59380661373739105e-04
 21 -6.33685789326981342e-05
 22  4.84111540743431962e-02
 23  2.42595678902506107e-01
 24  7.86062650842185295e-02
 Sym= A
 Ene=  1.15000476763978243e+00
 Spin= Alpha
 Occup=  0.00000000000000000e+00
  1  3.74881817048086652e-02
  2  1.25907892088670481e-01
  3  7.95438972832641089e-01
  4  2.63925736083622797e-10
  5  5.50001514384307333e-10
  6  2.05616544267924056e-02
  7 -2.35021797136193700e-01
  8  6.64438877902045633e-16
  9 -3.69298803343243165e-09
 10  7.90929577354024388e-02
 11 -9.04040536353753588e-01
 12  2.29908563337143694e-15
 13  6.38921353324217733e-10
 14 -1.47547746626819465e-01
 15  1.68648573322109074e+00
 16 -3.07617714546391563e-15
 17 -3.66486036179961006e-10
 18 -6.27803310872414549e-16
 19  2.36271565078626216e-16
 20 -6.41209823377284632e-03
 21  3.63649701807712833e-02
 22 -3.74881858273239388e-02
 23 -1.25907860495726026e-01
 24 -7.95438986052102281e-01
 Sym= A
 Ene=  1.43945320554203482e+00
 Spin= Alpha
 Occup=  0.00000000000000000e+00
  1  2.16645477389992465e-02
  2  6.04881367017063631e-01
  3  3.66258674523575911e-01
  4 -1.17708434660855718e-01
  5 -2.49033837269558578e-01
  6 -4.38213555427152887e-02
  7 -3.83385637149193624e-03
  8 -5.01265941187899686e-17
  9  1.81316168575318826e+00
 10 -1.45508162653433942e-01
 11 -1.27302636084746894e-02
 12  4.05081666111299629e-16
 13 -2.85399231615647464e+00
 14  7.29694035067866231e-01
 15  6.38396839869187632e-02
 16  2.00185937681677042e-17
 17 -3.72155578068290097e-02
 18 -1.53738122196867232e-16
 19 -5.65234604602552130e-16
 20 -2.41103090284367182e-02
 21 -4.25128049259475716e-03
 22  2.16645580723374941e-02
 23  6.04881355993346581e-01
 24  3.66258708611284844e-01
 Sym= A
 Ene=  2.31474357509190209e+00
 Spin= Alpha
 Occup=  0.00000000000000000e+00
  1  9.16873712534451490e-01
  2 -1.61900667097724194e+00
  3  7.05173274158451879e-01
  4 -9.75744696412456092e-10
  5 -2.21468420056984694e-09
  6 -1.45259653767687257e-02
  7  1.66033246562985931e-01
  8  4.18472000174761197e-17
  9  1.49985261918561541e-08
 10 -3.75714582395763556e-03
 11  4.29444733583061664e-02
 12 -8.32088240003983648e-16
 13 -2.19618955833722485e-08
 14  4.54879924368645217e-02
 15 -5.19932239769529070e-01
 16  1.03916067589456312e-15
 17 -5.17000946871279399e-09
 18  1.09455441734328963e-15
 19  2.00324884646773939e-15
 20 -6.71197926542993484e-02
 21  3.80656848979481877e-01
 22 -9.16873669191885177e-01
 23  1.61900662496505587e+00
 24 -7.05173246030546208e-01
 Sym= A
 Ene=  2.37010660245416283e+00
 Spin= Alpha
 Occup=  0.00000000000000000e+00
  1  9.79980716200171909e-01
  2 -1.64912380479861076e+00
  3  4.63746407745688038e-01
  4  1.70990955050090987e-02
  5  2.55436593082879193e-02
  6  1.43183876972133611e-01
  7  1.25269082029878936e-02
  8 -3.21738037885075091e-16
  9 -3.67520396296293003e-02
 10  6.26714921195177938e-02
 11  5.48300930457369055e-03
 12 -4.14499061139975895e-16
 13  7.60785035506487572e-01
 14 -5.10069611645334930e-01
 15 -4.46250948284215854e-02
 16  5.58485121409889306e-16
 17 -2.64555915344891313e-01
 18 -3.68547044611329990e-16
 19  9.29100159858661193e-16
 20 -1.69342177339970229e-01
 21 -2.98594772532657440e-02
 22  9.79980744340114729e-01
 23 -1.64912387445527253e+00
 24  4.63746417902493380e-01
 Sym= A
 Ene=  3.13893858523469316e+00
 Spin= Alpha
 Occup=  0.00000000000000000e+00
  1  5.48802569753171696e-02
  2 -3.03245550130406896e-02
  3  1.77124079222280191e-02
  4 -3.97423790473644162e-04
  5 -1.40419088561481394e-03
  6  4.30146563996780598e-02
  7  3.76327943162134675e-03
  8  2.40503038756035879e-15
  9  2.46261814982369383e-02
 10 -1.14003929939978550e-02
 11 -9.97401783562501965e-04
 12 -3.38279558760692464e-15
 13 -4.27966302058713222e-02
 14  2.93579620830933877e-02
 15  2.56847906684570847e-03
 16  2.31559902831987475e-15
 17 -4.16997651910139877e-01
 18 -6.57798123607512613e-14
 19  7.77860490869397095e-13
 20  8.93377251893443303e-01
 21  1.57525845878011134e-01
 22  5.48802547590015177e-02
 23 -3.03245533765978820e-02
 24  1.77124067473579186e-02
 Sym= A
 Ene=  3.14442632042571368e+00
 Spin= Alpha
 Occup=  0.00000000000000000e+00
  1  4.49384939960839260e-14
  2 -2.88993149847196243e-14
  3  1.56184864963629080e-14
  4  1.67380089995186202e-16
  5 -1.00126048301349652e-15
  6  3.32684865766114048e-14
  7  3.87356920418431437e-15
  8  1.51931123184444454e-09
  9  1.62226870584406159e-14
 10 -8.06343216631027643e-15
 11 -1.22608924605248097e-15
 12 -2.46612502413502055e-10
 13 -2.83313342740768194e-14
 14  2.09701984002450834e-14
 15  2.01310956753814041e-15
 16  3.48951535047417956e-10
 17 -3.29289867616280640e-13
 18  8.71554122639125461e-02
 19 -9.96194727005272229e-01
 20  6.96712111352098861e-13
 21  1.22971389762274779e-13
 22  3.96405466561583434e-14
 23 -2.21604833200920018e-14
 24  1.18697067812065485e-14
 Sym= A
 Ene=  3.17629337592426042e+00
 Spin= Alpha
 Occup=  0.00000000000000000e+00
  1 -2.70592006998571371e-15
  2  1.05726596661554992e-15
  3 -5.04216585522302991e-16
  4 -1.20878497004374375e-16
  5  4.59722344805962084e-16
  6 -4.41727116275174581e-16
  7 -5.96326248138108851e-16
  8  2.99399193332420092e-02
  9 -1.64853131514806244e-15
 10  9.79614197687373191e-16
 11 -1.05849906065840645e-16
 12 -6.23290178467715648e-03
 13  2.73524176895745279e-15
 14 -2.41132217465338784e-15
 15  8.21445802045570003e-16
 16  9.69015792837258499e-03
 17 -3.28429780371590774e-15
 18  9.95776410251882016e-01
 19  8.71188144724290292e-02
 20 -2.93312468987626773e-15
 21 -1.75709092147065224e-15
 22 -1.65637887463028921e-15
 23 -1.52292711446953936e-15
 24  2.95530389561330667e-17
 Sym= A
 Ene=  3.61421272073663236e+00
 Spin= Alpha
 Occup=  0.00000000000000000e+00
  1  5.17898830726111647e-01
  2 -1.28035316552890299e-01
  3  1.17635864153258315e-01
  4 -4.17305930677118984e-03
  5 -1.31000444694814033e-02
  6  1.06409297085810914e-01
  7  9.30957057696469616e-03
  8  1.87741741332940571e-15
  9  2.44696488626266501e-01
 10 -8.44294256960015782e-02
 11 -7.38659655148891838e-03
 12 -1.29642628270634030e-15
 13 -5.35807544606793140e-01
 14  2.84232058119568143e-01
 15  2.48669936681441758e-02
 16  5.79107221613308080e-16
 17  9.17165131744012596e-01
 18  5.19763702818535045e-15
 19 -3.63238334710001898e-15
 20  4.04210843000594955e-01
 21  7.12729317911353077e-02
 22  5.17898780315528384e-01
 23 -1.28035282053564986e-01
 24  1.17635841593964938e-01
 Sym= A
 Ene=  3.95978288904205655e+00
 Spin= Alpha
 Occup=  0.00000000000000000e+00
  1  6.78602632317335974e-01
  2 -3.80345323769958776e-01
  3  3.21824868267631847e-01
  4 -4.93854248050399833e-10
  5 -6.07712847058849981e-10
  6 -1.75451350116129501e-02
  7  2.00542486905864514e-01
  8  8.99605506028236664e-16
  9 -7.70271223454049858e-09
 10  1.74400204227284361e-02
 11 -1.99341110353978751e-01
 12 -1.32967448314530770e-16
 13  3.01497857391891388e-08
 14 -3.59677752454910168e-02
 15  4.11115082165069534e-01
 16  5.56607086720089387e-20
 17 -4.29055717557228281e-08
 18 -1.30081958830293969e-15
 19  4.84388274021318042e-16
 20  1.76801134435525337e-01
 21 -1.00269341960210379e+00
 22 -6.78602700032338246e-01
 23  3.80345344703816868e-01
 24 -3.21824885148545348e-01
 Sym= A
 Ene=  5.31243642888463796e+00
 Spin= Alpha
 Occup=  0.00000000000000000e+00
  1 -9.46329988542952351e-15
  2  8.54034851874339930e-15
  3 -1.11600765976814095e-15
  4 -5.05609083073979842e-16
  5  1.09702608652653010e-16
  6  3.35612924523188190e-14
  7  7.04961562421376320e-15
  8  1.27008606468470497e+00
  9  4.46426542750620291e-16
 10 -3.77131708641348472e-14
 11 -8.11432063871632251e-15
 12 -1.36954506321106373e+00
 13 -4.15762056520259506e-15
 14  1.62287815897411470e-14
 15  2.96652703719896777e-15
 16  5.23534283787489896e-01
 17 -1.64830856764124990e-15
 18 -1.68225682181452514e-02
 19 -1.47177753387629589e-03
 20 -5.01727946143665006e-15
 21  4.26849299401569725e-16
 22 -5.29802151517357994e-15
 23  7.32004949999025874e-15
 24 -8.38798388388153286e-16
 Sym= A
 Ene=  5.43716716758227747e+00
 Spin= Alpha
 Occup=  0.00000000000000000e+00
  1  2.52668082828407248e-01
  2 -3.36192320479426487e-01
  3  2.16078017350487886e-02
  4  4.98621767681204416e-03
  5  1.00551975194468259e-02
  6 -1.26506206159769397e+00
  7 -1.10678184542182173e-01
  8  3.48149798928364503e-14
  9 -6.20573289197569183e-02
 10  1.40549155321410857e+00
 11  1.22964127309245497e-01
 12 -3.68079391027093255e-14
 13  2.81274845950557018e-01
 14 -6.48531976495984708e-01
 15 -5.67389933610264879e-02
 16  1.44604533859855637e-14
 17  5.31263899374374710e-02
 18 -8.55690917497916361e-16
 19  2.54844555919640074e-16
 20  4.76038987629913216e-02
 21  8.39381873874055912e-03
 22  2.52668072069147653e-01
 23 -3.36192305214766118e-01
 24  2.16078194163176786e-02
 Sym= A
 Ene=  5.61642654983768619e+00
 Spin= Alpha
 Occup=  0.00000000000000000e+00
  1  3.57649411986562027e-01
  2 -3.55820493415810013e-01
  3 -1.33821585554909334e-01
  4 -6.44184026108753083e-10
  5 -1.11106814878027607e-09
  6  1.10914333870713241e-01
  7 -1.26776128817691291e+00
  8  4.43924144695689931e-15
  9  4.36168610257192668e-09
 10 -1.29011178819594841e-01
 11  1.47460991608401448e+00
 12 -5.09762580462800153e-15
 13 -1.50375226454918520e-08
 14  6.66498955872110166e-02
 15 -7.61814639698862206e-01
 16  2.13901859194968319e-15
 17 -9.32813222151440691e-09
 18 -6.01363055561001407e-16
 19 -2.67370911348661036e-16
 20  2.79227370920601611e-02
 21 -1.58358412153925265e-01
 22 -3.57649456014266343e-01
 23  3.55820536810814270e-01
 24  1.33821581240742504e-01
 Sym= A
 Ene=  5.14437926405459152e+01
 Spin= Alpha
 Occup=  0.00000000000000000e+00
  1  6.27977847408773236e-03
  2 -4.47553244398699104e-02
  3 -3.12460914830703269e-02
  4 -2.24645852495727016e+00
  5  2.32920772976037682e+00
  6 -4.77151991277631644e-03
  7 -4.17451920714213961e-04
  8  2.88751477079645890e-16
  9 -2.44881216188513273e-01
 10  1.43630582147288039e-02
 11  1.25659902259527174e-03
 12 -4.54867832883012213e-16
 13  2.48281833561846604e-01
 14 -5.08521931112513731e-02
 15 -4.44897078201460586e-03
 16  2.16695940188263225e-16
 17 -4.38582713280367617e-03
 18  5.34372393551386623e-16
 19 -5.26804983615452960e-16
 20 -2.25624762472306870e-03
 21 -3.97835318383514243e-04
 22  6.27978068518868140e-03
 23 -4.47553274378957797e-02
 24 -3.12460925276266503e-02
