[Molden Format]
[Atoms] (AU)
H    1    1         0.000000000000       1.432174350607      -0.931811457446
O    2    8         0.000000000000      -0.000000000000       0.117425185833
H    3    1         0.000000000000      -1.432174350607      -0.931811454786
[GTO]
  1 0
 s    3  1.00
       33.8650000000         0.0254938000
        5.0947900000         0.1903730000
        1.1587900000         0.8521610000
 s    1  1.00
        0.3258400000         1.0000000000
 s    1  1.00
        0.1027410000         1.0000000000

  2 0
 s    6  1.00
     8588.5000000000         0.0018951500
     1297.2300000000         0.0143859000
      299.2960000000         0.0707320000
       87.3771000000         0.2400010000
       25.6789000000         0.5947970000
        3.7400400000         0.2808020000
 s    3  1.00
       42.1175000000         0.1138890000
        9.6283700000         0.9208110000
        2.8533200000        -0.0032744700
 p    3  1.00
       42.1175000000         0.0365114000
        9.6283700000         0.2371530000
        2.8533200000         0.8197020000
 s    1  1.00
        0.9056610000         1.0000000000
 p    1  1.00
        0.9056610000         1.0000000000
 s    1  1.00
        0.2556110000         1.0000000000
 p    1  1.00
        0.2556110000         1.0000000000
 d    1  1.00
        1.2920000000         1.0000000000

  3 0
 s    3  1.00
       33.8650000000         0.0254938000
        5.0947900000         0.1903730000
        1.1587900000         0.8521610000
 s    1  1.00
        0.3258400000         1.0000000000
 s    1  1.00
        0.1027410000         1.0000000000

[5D]
[9G]

[MO]
 Sym= A
 Ene= -2.05419482098768711e+01
 Spin= Alpha
 Occup=  2.00000000000000000e+00
  1  2.08322747940328096e-04
  2 -4.71875391285261859e-05
  3  1.09089058603521055e-04
  4  5.51433328929235911e-01
  5  4.71665906213361463e-01
  6 -8.98278822698493931e-11
  7 -8.90464417696926192e-11
  8 -1.82335236379309361e-03
  9  5.59471071402237174e-03
 10  4.45430681344535452e-11
 11  4.30067526729915883e-11
 12  5.83396365879041388e-04
 13 -2.87662390341586905e-04
 14 -1.95651092177278998e-11
 15 -2.50037976434747122e-11
 16 -1.82014333379321310e-04
 17 -8.17218626821018872e-07
 18 -3.18255463405158356e-11
 19  1.94959113579964364e-11
 20  1.11371331693296908e-04
 21  5.92370617840879376e-11
 22  2.08322758316596517e-04
 23 -4.71875521618064786e-05
 24  1.09089043474962927e-04
 Sym= A
 Ene= -1.35282750942037455e+00
 Spin= Alpha
 Occup=  2.00000000000000000e+00
  1  9.84505505093547922e-02
  2  3.27313736464738686e-02
  3 -2.48820396769530716e-03
  4 -1.13598799485185267e-01
  5 -1.90545726211574729e-01
  6  1.00381657948186298e-09
  7 -2.00222545140849029e-09
  8 -3.61485338781284485e-02
  9  5.42801347518804378e-01
 10  1.70954236546901985e-09
 11 -3.81158246631763120e-09
 12 -8.11020076980601412e-02
 13  4.47585357430606456e-01
 14  4.90375638281078912e-10
 15 -2.57000971892740182e-09
 16 -5.25526748847357852e-02
 17  3.82642581261189796e-03
 18 -2.18502930580504465e-10
 19  6.06989766121276281e-10
 20 -1.62494484957241003e-02
 21  4.24197556291580407e-11
 22  9.84505536877352816e-02
 23  3.27313761406211046e-02
 24 -2.48820446597591838e-03
 Sym= A
 Ene= -7.26639848724665804e-01
 Spin= Alpha
 Occup=  2.00000000000000000e+00
  1  1.55455108602506442e-01
  2  1.76639529001701961e-01
  3  5.13455913539307626e-02
  4 -1.54409884704775902e-09
  5 -2.58363784056206414e-09
  6  1.12431406934685127e-08
  7  2.22612359392647841e-01
  8  5.33945738025263378e-09
  9  7.26878588395984959e-09
 10  1.69479719206733842e-08
 11  3.71864304749619290e-01
 12  8.07823360288173475e-09
 13  7.32976767475745916e-09
 14  1.04745622959891093e-08
 15  2.38092398831899060e-01
 16  5.34546925733819789e-09
 17 -2.26488491874535409e-10
 18 -2.62028768604350756e-10
 19 -4.11566960483599198e-02
 20  5.18548037842236909e-10
 21 -3.28151282851449849e-11
 22 -1.55455109997829605e-01
 23 -1.76639532827887358e-01
 24 -5.13455862006444719e-02
 Sym= A
 Ene= -5.69189766088979754e-01
 Spin= Alpha
 Occup=  2.00000000000000000e+00
  1  8.77846038876339274e-02
  2  9.66754116822999138e-02
  3  3.07788544263031920e-02
  4  3.82199816787185259e-02
  5  6.47476002672893874e-02
  6  1.76114554993681822e-08
  7  2.67826800255839548e-09
  8 -2.55079697364372138e-01
  9 -1.99644554612510378e-01
 10  2.65612351935388866e-08
 11  4.53169431927774591e-09
 12 -3.88972685112991379e-01
 13 -2.63406029100342776e-01
 14  2.33521260719645347e-08
 15  6.94732025380284668e-09
 16 -3.90459654163933467e-01
 17  2.25968427406658366e-02
 18 -1.13490638106361671e-09
 19 -9.68107960926800756e-11
 20 -7.74381402732799741e-03
 21 -5.71898470663310620e-10
 22  8.77845985041097315e-02
 23  9.66754076446693922e-02
 24  3.07788437776158608e-02
 Sym= A
 Ene= -5.00188272779482079e-01
 Spin= Alpha
 Occup=  2.00000000000000000e+00
  1 -1.36883312072107282e-08
  2 -3.10080058775950412e-08
  3 -3.09828766043680139e-08
  4 -2.55493150790070648e-09
  5 -4.37622347877625763e-09
  6  2.91859524893343991e-01
  7  6.37907232020229092e-10
  8  1.07271751833341738e-08
  9  1.41191039511982106e-08
 10  4.39236567368920638e-01
 11 -4.57093382664368329e-10
 12  1.54599799135228737e-08
 13  2.49554906090080283e-08
 14  4.89355586644546148e-01
 15  1.04569642914217937e-08
 16  2.37848383094571136e-08
 17 -9.98547969917788467e-10
 18 -2.18837352983180453e-02
 19  2.26470549918482709e-09
 20 -7.12892763105936561e-11
 21 -2.91653327377770113e-10
 22  2.85863250106644431e-09
 23  1.72300836779848937e-08
 24  4.68918790383271921e-09
 Sym= A
 Ene=  1.50143651711540593e-01
 Spin= Alpha
 Occup=  0.00000000000000000e+00
  1  3.44507178605882036e-02
  2 -5.14458605060177238e-02
  3  8.42523017129685914e-01
  4  3.37478223137230582e-02
  5  5.50750225997888448e-02
  6  4.31592136317476384e-09
  7  4.29089773781865524e-09
  8  7.19097835960558068e-02
  9 -1.02933220386340105e-01
 10  5.52606504650185753e-09
 11  5.82563010331771380e-09
 12  1.17927606358153969e-01
 13 -8.72519952496830342e-01
 14  1.07264269048891453e-08
 15  1.72232064443722521e-08
 16  2.07474054846095796e-01
 17 -5.59986138614832103e-03
 18 -1.03111644913851536e-10
 19 -7.27394023974318321e-10
 20  3.98075934137566770e-03
 21 -2.63675495439842852e-10
 22  3.44507203502540660e-02
 23 -5.14458659591590095e-02
 24  8.42523141630891148e-01
 Sym= A
 Ene=  2.16554878357149483e-01
 Spin= Alpha
 Occup=  0.00000000000000000e+00
  1  2.18799050254016338e-02
  2 -1.09811333741468287e-01
  3  1.56536860510099718e+00
  4  1.25786102801034305e-09
  5  2.05695962172958158e-09
  6  4.89702648872198142e-09
  7 -1.19060953789187934e-01
  8  3.54727939947188653e-09
  9 -3.91163330892840833e-09
 10  6.62339073737029585e-09
 11 -1.37173706207520479e-01
 12  5.62791384328686917e-09
 13 -3.10587396357142609e-08
 14  1.38516154975413318e-08
 15 -5.11718925981133443e-01
 16  8.98310942992752715e-09
 17 -5.14575172131780806e-10
 18 -3.20209812169039315e-10
 19  1.04092004364157043e-02
 20 -3.29719642214176822e-10
 21 -1.76677157208236578e-10
 22 -2.18799025672442582e-02
 23  1.09811320233798859e-01
 24 -1.56536853388932085e+00
 Sym= A
 Ene=  5.77900386983840830e-01
 Spin= Alpha
 Occup=  0.00000000000000000e+00
  1  7.92277840888563484e-02
  2  1.49059018196415938e+00
  3 -7.27529352703281229e-01
  4 -2.39929137365105238e-09
  5 -4.16601413219183647e-09
  6  2.45385569985823936e-09
  7 -1.25600899213538675e-01
  8 -8.62785486728957079e-09
  9  9.79210955376341730e-09
 10  4.22531428747412908e-10
 11 -1.82163193303946563e-01
 12 -1.53625528912654241e-08
 13  9.59303748590545347e-08
 14  1.81553966497169927e-08
 15 -1.18889528319951943e+00
 16 -6.80349856053280577e-08
 17  6.65069241988073580e-10
 18  2.71862373943943727e-11
 19 -1.86152598420690797e-02
 20  8.20526819666350660e-10
 21 -3.70288608566446517e-11
 22 -7.92277957684907191e-02
 23 -1.49059043629718557e+00
 24  7.27529442618829236e-01
 Sym= A
 Ene=  6.09947566167165833e-01
 Spin= Alpha
 Occup=  0.00000000000000000e+00
  1  6.97510702507580793e-02
  2  1.73498188287360722e+00
  3 -6.07173399600300367e-01
  4  3.37788831760149483e-02
  5  5.86590950821179666e-02
  6  2.21258462719047961e-11
  7 -8.29006861248482441e-09
  8  1.00184962159987359e-01
  9 -1.42376161596066919e-01
 10 -5.11244621514802920e-10
 11 -9.22455734020388718e-09
 12  1.62386897299080263e-01
 13 -1.29465648617693696e+00
 14  3.56285657014479720e-09
 15 -9.55057529589131704e-08
 16  9.88727982005635719e-01
 17 -1.21265686946369165e-02
 18 -7.22339460331638862e-12
 19 -2.19058637393042700e-09
 20 -2.11044910337827817e-02
 21 -5.52313439772928840e-10
 22  6.97510589770950207e-02
 23  1.73498166312384217e+00
 24 -6.07173305223288384e-01
 Sym= A
 Ene=  1.00325583586931777e+00
 Spin= Alpha
 Occup=  0.00000000000000000e+00
  1  8.62543852691515213e-09
  2  6.94546473104330477e-08
  3  3.20735294928084393e-08
  4  3.74289201859564501e-09
  5  6.65995949302845073e-09
  6  2.40826955055039760e-01
  7  3.80655816838864726e-09
  8 -4.33082168972964009e-08
  9 -2.56325678905773556e-08
 10  8.38559306568980922e-01
 11  1.60049644247478893e-08
 12 -1.59946872535073739e-07
 13 -6.23253998941187167e-08
 14 -1.13585254898407961e+00
 15 -5.22054939732583313e-08
 16  2.65601766666195327e-07
 17  1.49231393643913073e-09
 18 -8.68318209004175466e-03
 19 -1.25943560730934368e-10
 20 -3.09428316389715207e-09
 21 -5.34775647566638069e-10
 22  9.41399854362992792e-09
 23  3.50632670057915449e-08
 24  1.05740810076439780e-09
 Sym= A
 Ene=  1.01604630685843755e+00
 Spin= Alpha
 Occup=  0.00000000000000000e+00
  1  4.83985315298228400e-02
  2  2.42599686663127811e-01
  3  7.85589656509099454e-02
  4  2.05042647258435566e-02
  5  3.71514593584246627e-02
  6 -4.77516262605156995e-08
  7  2.31226162782788291e-10
  8 -2.27409479514386503e-01
  9 -1.57407594610987883e-01
 10 -1.65010573907047409e-07
 11 -4.91304332286834899e-10
 12 -8.37489031929710026e-01
 13 -2.58988790983786521e-01
 14  2.17312729373654428e-07
 15  8.86309771755411369e-09
 16  1.34206274851490748e+00
 17  8.54173275326131597e-03
 18  1.79408030568585731e-09
 19  1.12566335933541217e-09
 20 -1.55307353469857443e-02
 21  1.22881483423568085e-11
 22  4.83985326914704028e-02
 23  2.42599695500541501e-01
 24  7.85589665458569925e-02
 Sym= A
 Ene=  1.15000503148042887e+00
 Spin= Alpha
 Occup=  0.00000000000000000e+00
  1  3.74626278445256006e-02
  2  1.26052691580685827e-01
  3  7.95244840705480294e-01
  4  1.44977304868208062e-09
  5  3.13324706067638625e-09
  6 -6.88697638310422617e-09
  7  2.35921303082504891e-01
  8 -1.21808681923570722e-09
  9 -2.38664496082785504e-08
 10 -2.29208349138779425e-08
 11  9.07503200094501805e-01
 12 -2.61530850795277381e-09
 13  4.46055389638488897e-08
 14  2.26089671481455465e-08
 15 -1.69297065203509378e+00
 16 -1.16951788383876099e-08
 17  5.90944129107108182e-10
 18  2.60098595884715013e-10
 19 -3.69275792715684781e-02
 20  1.51324298447788608e-09
 21 -2.61077831558644737e-11
 22 -3.74626292763505786e-02
 23 -1.26052720940788038e-01
 24 -7.95244848171849261e-01
 Sym= A
 Ene=  1.43944530822503425e+00
 Spin= Alpha
 Occup=  0.00000000000000000e+00
  1  2.16004495603157633e-02
  2  6.04903182075904988e-01
  3  3.66186614359817697e-01
  4 -1.17708918065344392e-01
  5 -2.49033472035531778e-01
  6 -1.25854654699029786e-09
  7  2.81006364379922380e-09
  8 -4.40037583003817026e-02
  9  1.81313550757879849e+00
 10 -3.14770552494255841e-09
 11  1.27911386925069759e-08
 12 -1.46116863224529936e-01
 13 -2.85376382341135981e+00
 14  2.25372903230226352e-09
 15 -2.13778617672716331e-08
 16  7.32473122156995227e-01
 17 -2.59494085249681837e-03
 18 -3.33067549682538745e-10
 19 -5.22558068925739905e-10
 20 -4.44643090497865018e-02
 21  2.61574153416619462e-10
 22  2.16004475292912897e-02
 23  6.04903180593862277e-01
 24  3.66186593190062915e-01
 Sym= A
 Ene=  2.31476489410247499e+00
 Spin= Alpha
 Occup=  0.00000000000000000e+00
  1  9.16915444279025604e-01
  2 -1.61895662432724730e+00
  3  7.05230008548190623e-01
  4 -1.68462308046488790e-09
  5 -2.48978886878241379e-09
  6  5.89704076932240451e-10
  7 -1.66649989913802421e-01
  8 -1.49540717655507159e-08
  9  2.68435450256898633e-09
 10  2.89720295847181053e-09
 11 -4.29804832172038520e-02
 12 -7.10122117272143916e-09
 13 -7.40286760329833537e-08
 14 -8.40760304562477098e-10
 15  5.21737895389262962e-01
 16  5.09526565184784119e-08
 17  1.01568012654480776e-09
 18  2.93063759540085065e-10
 19 -3.86532514810072114e-01
 20  2.92248099138716494e-08
 21  4.84402191761459336e-10
 22 -9.16915640147569766e-01
 23  1.61895695223900260e+00
 24 -7.05230101500358253e-01
 Sym= A
 Ene=  2.37006355674405045e+00
 Spin= Alpha
 Occup=  0.00000000000000000e+00
  1  9.80008045407983697e-01
  2 -1.64902194820461157e+00
  3  4.63813796860942928e-01
  4  1.70824785930948422e-02
  5  2.55091448472090018e-02
  6 -9.52064270484716842e-11
  7 -1.57936081606521034e-08
  8  1.43706753275448906e-01
  9 -3.65454689072235994e-02
 10  2.77508245413588957e-10
 11 -3.41917691208670771e-09
 12  6.28172517804856667e-02
 13  7.60320291169023332e-01
 14 -4.76836265694772145e-10
 15  4.98733280888952191e-08
 16 -5.11835444322763289e-01
 17 -1.66415923542033717e-02
 18 -3.99832904347946571e-10
 19 -4.05290909780673964e-08
 20 -3.15070172241161184e-01
 21 -5.70705073623426775e-10
 22  9.80007866082309276e-01
 23 -1.64902163162045201e+00
 24  4.63813659048389448e-01
 Sym= A
 Ene=  3.13896683048873770e+00
 Spin= Alpha
 Occup=  0.00000000000000000e+00
  1  5.48699247517938915e-02
  2 -3.03093696106618710e-02
  3  1.77078664389866101e-02
  4 -3.98287871938290386e-04
  5 -1.40583604795188589e-03
  6  8.85994408114276262e-11
  7 -1.19485987186559398e-09
  8  4.31684286950584153e-02
  9  2.46337264514824121e-02
 10 -2.53396421451953263e-11
 11  3.30225323363800109e-10
 12 -1.14479122291493308e-02
 13 -4.28053881124596733e-02
 14 -5.33377018366188510e-11
 15  3.74402146492789495e-10
 16  2.94756546267007646e-02
 17  9.94125589352203631e-01
 18  2.15007477377277052e-09
 19  2.12115815228814657e-10
 20  9.24136205686387907e-02
 21  1.36303674007806689e-07
 22  5.48699233124336633e-02
 23 -3.03093670848916807e-02
 24  1.77078651359919292e-02
 Sym= A
 Ene=  3.14444707639706245e+00
 Spin= Alpha
 Occup=  0.00000000000000000e+00
  1 -7.60209951430638595e-09
  2  4.91768561164112994e-09
  3 -2.42765389855916882e-09
  4  7.66393578155348048e-11
  5  3.90996863894170402e-10
  6  1.63068646459276466e-09
  7 -4.95351998119703042e-11
  8 -5.84386583964417800e-09
  9 -4.32414778972823031e-09
 10 -8.97906225530972705e-10
 11  1.53528161227496049e-10
 12  1.49943272832394185e-09
 13  6.38815706350340119e-09
 14  1.13877806106490559e-10
 15 -5.76181309946383614e-10
 16 -4.34947420305244656e-09
 17 -1.35411429065608249e-07
 18  2.01540031350160466e-09
 19  4.63391779411625560e-10
 20 -1.37280642243453659e-08
 21  9.99999999999990563e-01
 22 -7.08489422041083590e-09
 23  3.43796779288851899e-09
 24 -2.48174851152658024e-09
 Sym= A
 Ene=  3.17631035480440937e+00
 Spin= Alpha
 Occup=  0.00000000000000000e+00
  1 -5.01507229889883260e-10
  2 -1.92647170752222394e-10
  3 -2.14544402753967824e-10
  4 -3.05309775322044764e-11
  5 -1.41214774862454514e-10
  6  2.99345358815447347e-02
  7  1.76819200072974824e-10
  8 -1.80645345485579227e-10
  9  7.74576959770138223e-10
 10 -6.23224829186361847e-03
 11 -1.77598186369632131e-10
 12  1.38081778341487126e-10
 13 -3.41185796822377553e-10
 14  9.68942696302945231e-03
 15  2.36691310459029540e-10
 16 -9.97592136724058185e-11
 17 -2.13917472756700740e-09
 18  9.99580233033160015e-01
 19 -3.92579320239532401e-10
 20 -3.89942444315437871e-10
 21 -2.04530334743395400e-09
 22  1.05876645709179592e-09
 23 -6.53929085527487072e-10
 24  4.09580142793920753e-10
 Sym= A
 Ene=  3.61409314450203123e+00
 Spin= Alpha
 Occup=  0.00000000000000000e+00
  1  5.17808108574337900e-01
  2 -1.28038056991171045e-01
  3  1.17613028287531146e-01
  4 -4.17936501732160855e-03
  5 -1.31113399627755638e-02
  6 -2.98151672450361724e-10
  7 -1.86478148863633699e-09
  8  1.06752985980847467e-01
  9  2.44728650235813194e-01
 10  6.73262050334833346e-10
 11  7.79721949031468358e-10
 12 -8.47591945767679489e-02
 13 -5.35699514749503836e-01
 14 -9.41722581489404812e-11
 15  4.32796216765884804e-10
 16  2.85263178699080244e-01
 17 -1.03083488795420564e-01
 18  4.88708721287551093e-11
 19 -7.17656943845037613e-10
 20  9.99500374636185018e-01
 21  9.43454658605062220e-10
 22  5.17808106367103393e-01
 23 -1.28038053270014690e-01
 24  1.17613026510516624e-01
 Sym= A
 Ene=  3.95955004132772004e+00
 Spin= Alpha
 Occup=  0.00000000000000000e+00
  1  6.78517145255253862e-01
  2 -3.80293891521735483e-01
  3  3.21749253007909519e-01
  4 -2.77683499566756808e-12
  5  7.06808071272713168e-11
  6  1.88319135650593217e-10
  7 -2.01178472192343416e-01
  8  2.08476115575373031e-09
  9 -2.66238751531200357e-10
 10 -1.87655601458038897e-10
 11  2.00071412464046000e-01
 12 -9.29690657357901129e-10
 13  1.43837844759908684e-09
 14 -2.20320882634920160e-11
 15 -4.12641597524808057e-01
 16 -3.31147359967226551e-10
 17 -8.55428728615154630e-10
 18  5.44654698251651851e-10
 19  1.01812567651133290e+00
 20 -1.31906226002662108e-09
 21 -2.80033037257303244e-10
 22 -6.78517142995049838e-01
 23  3.80293887618527116e-01
 24 -3.21749252230558613e-01
 Sym= A
 Ene=  5.31243589982995434e+00
 Spin= Alpha
 Occup=  0.00000000000000000e+00
  1  1.47562315236030889e-09
  2 -1.88967602108190477e-09
  3  7.33134934171944067e-11
  4  6.40918960388947603e-11
  5  1.59081721786236380e-11
  6  1.27008541180825474e+00
  7 -5.08518044204916058e-10
  8 -5.53601742622337788e-09
  9 -7.16657326855626531e-11
 10 -1.36954667770869976e+00
 11 -7.12008455805031765e-10
 12  6.89680285475638746e-09
 13  1.08284961668470477e-09
 14  5.23534614226655703e-01
 15  4.39723003171152008e-10
 16 -2.98039567804497057e-09
 17 -3.57587946791352956e-12
 18 -1.68837853445552924e-02
 19 -2.67743918725454042e-10
 20  6.29821978753788542e-10
 21 -1.06729064583711735e-09
 22  1.22197092857703457e-09
 23 -1.24768922891904590e-09
 24  8.91229976797803520e-11
 Sym= A
 Ene=  5.43710561423185901e+00
 Spin= Alpha
 Occup=  0.00000000000000000e+00
  1  2.52578645732442653e-01
  2 -3.36122086232587436e-01
  3  2.15941560903909063e-02
  4  4.98321010466904000e-03
  5  1.00505242518170168e-02
  6 -6.04667467155464014e-09
  7 -2.14807093579314889e-09
  8 -1.26989662270437420e+00
  9 -6.20513435776086919e-02
 10  5.71817335931908228e-09
 11  2.88431318461396594e-09
 12  1.41083127958871257e+00
 13  2.81244955026697441e-01
 14 -2.28680914537657615e-09
 15 -1.73905630054902588e-09
 16 -6.50996657334348416e-01
 17  1.53024222516075885e-02
 18 -7.31709898824612803e-12
 19  8.54368891592412878e-10
 20  7.01156855179516786e-02
 21  9.02302046685020222e-11
 22  2.52578645790701550e-01
 23 -3.36122087039391670e-01
 24  2.15941554896703011e-02
 Sym= A
 Ene=  5.61628395737838648e+00
 Spin= Alpha
 Occup=  0.00000000000000000e+00
  1  3.57493600581213766e-01
  2 -3.55716624151311944e-01
  3 -1.33834747654273750e-01
  4  1.08604904109081864e-10
  5 -1.39702646206971842e-10
  6 -2.45949528956719630e-10
  7  1.27261585972722613e+00
  8 -1.95410606150677423e-09
  9  6.87654273801019400e-10
 10 -9.79199775482687205e-10
 11 -1.48019044128808575e+00
 12  1.76401620947171794e-09
 13 -1.54600830401530054e-09
 14  3.10628286968825984e-10
 15  7.64726866619358625e-01
 16 -4.61112016787983831e-10
 17  4.16308653245679879e-10
 18 -1.38672209820511546e-11
 19  1.60652987435578987e-01
 20  8.41347907196230566e-10
 21  4.84850179887249517e-11
 22 -3.57493599744481860e-01
 23  3.55716624291484762e-01
 24  1.33834748173874252e-01
 Sym= A
 Ene=  5.14437649125726750e+01
 Spin= Alpha
 Occup=  0.00000000000000000e+00
  1  6.26822315147762456e-03
  2 -4.47346086536105358e-02
  3 -3.12469519439103373e-02
  4 -2.24645846264304172e+00
  5  2.32920698910034307e+00
  6  1.36322309698988791e-11
  7  4.37878353503695986e-11
  8 -4.78818759541359360e-03
  9 -2.44878606617733280e-01
 10 -1.73127166922418576e-11
 11 -3.92253785876095495e-11
 12  1.44147817420423076e-02
 13  2.48256279407129493e-01
 14  5.07874854885971771e-12
 15 -4.31604190321427383e-11
 16 -5.10360969496668829e-02
 17  2.08620887538082922e-04
 18  8.92460105153008861e-12
 19 -2.27603822485809653e-11
 20 -4.94568622103271158e-03
 21 -1.91389237926361801e-11
 22  6.26822324909392936e-03
 23 -4.47346087867789427e-02
 24 -3.12469519704075480e-02
