[Molden Format]

[FREQ]
         768.5763959957
        1131.5751517186
        1131.5751602674
        1527.2334958571
        1617.7794376786
        1617.7794570644
        3245.9291968575
        3348.0906308150
        3348.0907068586

[FR-COORD]
C         -0.0000021507       -2.3270215843        0.0000000000
CL         0.0000009773        1.0548958529        0.0000000000
H         -1.9319271479       -2.9648774788        0.0000000000
H          0.9659594229       -2.9648801784       -1.6730956069
H          0.9659594229       -2.9648801784        1.6730956069

[FR-NORM-COORD]
vibration 1
           0.0000005610        0.6041970886        0.0000000000
          -0.0000002271       -0.2449449412       -0.0000000000
           0.0496249999        0.4349559166       -0.0000000000
          -0.0248119004        0.4349559757        0.0429761650
          -0.0248119004        0.4349559756       -0.0429761650
vibration 2
           0.0007747912       -0.0000000007        0.1138883346
          -0.0001486917        0.0000000001       -0.0218565288
          -0.0008609778        0.0051259481       -0.2718990937
          -0.0645365788        0.6499654222       -0.1633212887
           0.0613314564       -0.6550913670       -0.1624649903
vibration 3
           0.1138883377       -0.0000001029       -0.0007747912
          -0.0218565286        0.0000000210        0.0001486917
          -0.1265571021        0.7534749070        0.0018497505
          -0.2351360123       -0.3811764070       -0.0618264525
          -0.2359923022       -0.3722980045        0.0640428018
vibration 4
          -0.0000000919       -0.1060170251       -0.0000000000
          -0.0000000105       -0.0102892451       -0.0000000000
          -0.1954233499        0.5397788787        0.0000000003
           0.0977124046        0.5397785806       -0.1692420432
           0.0977124042        0.5397785804        0.1692420432
vibration 5
          -0.0650297283        0.0000000570       -0.0004023041
          -0.0030328802        0.0000000025       -0.0000187628
          -0.1494279145        0.3164046688        0.0045518891
           0.5168506377       -0.1565075391        0.3837519072
           0.5121080011       -0.1598978942       -0.3828626110
vibration 6
           0.0004023041       -0.0000000003       -0.0650297313
           0.0000187628       -0.0000000000       -0.0030328794
           0.0009244305       -0.0019574263        0.7357820270
           0.3801247232        0.2749926760        0.0695030366
          -0.3864903391       -0.2730352456        0.0742456698
vibration 7
          -0.0000000794       -0.0418640462        0.0000000001
           0.0000000000       -0.0000920637       -0.0000000000
           0.5520750503        0.1672203806        0.0000000000
          -0.2760370521        0.1672210057        0.4781104671
          -0.2760370526        0.1672210059       -0.4781104678
vibration 8
          -0.0966949541        0.0000001093       -0.0000435346
           0.0002492495       -0.0000000002        0.0000001122
           0.7758540869        0.2414236445       -0.0000063330
           0.1832599370       -0.1206183358       -0.3417853120
           0.1835679327       -0.1208066025        0.3423061107
vibration 9
           0.0000435346       -0.0000000001       -0.0966949555
          -0.0000001122       -0.0000000000        0.0002492495
          -0.0003493097       -0.0001086952       -0.0140661308
          -0.3421278715        0.2091343697        0.5785280505
           0.3419627155       -0.2090256735        0.5782200537
