[Molden Format]

[FREQ]
         768.5763958912
        1131.5751502106
        1131.5751585661
        1527.2334932548
        1617.7794345715
        1617.7794541549
        3245.9291965199
        3348.0906306601
        3348.0907063057

[FR-COORD]
C         -0.0000021507       -2.3270215842        0.0000000000
CL         0.0000009773        1.0548958529        0.0000000000
H         -1.9319271478       -2.9648774790        0.0000000000
H          0.9659594229       -2.9648801787       -1.6730956069
H          0.9659594229       -2.9648801787        1.6730956069

[FR-NORM-COORD]
vibration 1
           0.0000005610        0.6041970883       -0.0000000000
          -0.0000002271       -0.2449449411        0.0000000000
           0.0496249997        0.4349559172       -0.0000000000
          -0.0248119003        0.4349559755        0.0429761649
          -0.0248119002        0.4349559758       -0.0429761649
vibration 2
           0.0012134781       -0.0000000011        0.1138845052
          -0.0002328809        0.0000000002       -0.0218557939
          -0.0013484634        0.0080282605       -0.2718899515
          -0.0654418334        0.6484923264       -0.1635582298
           0.0604219699       -0.6565205816       -0.1622170950
vibration 3
           0.1138845083       -0.0000001029       -0.0012134780
          -0.0218557937        0.0000000210        0.0002328809
          -0.1265528467        0.7534495720        0.0028970796
          -0.2348856763       -0.3836772159       -0.0611968879
          -0.2362267977       -0.3697718608        0.0646681345
vibration 4
          -0.0000000920       -0.1060170252        0.0000000000
          -0.0000000105       -0.0102892450        0.0000000000
          -0.1954233503        0.5397788789       -0.0000000000
           0.0977124050        0.5397785803       -0.1692420429
           0.0977124050        0.5397785803        0.1692420429
vibration 5
          -0.0650283177        0.0000000571       -0.0005876303
          -0.0030328144        0.0000000025       -0.0000274061
          -0.1494246733        0.3163978053        0.0066487721
           0.5179318540       -0.1557232037        0.3839484253
           0.5110044643       -0.1606753675       -0.3826494641
vibration 6
           0.0005876304       -0.0000000005       -0.0650283206
           0.0000274061       -0.0000000000       -0.0030328137
           0.0013502805       -0.0028591383        0.7357660665
           0.3786502096        0.2754375897        0.0684091015
          -0.3879482236       -0.2725784445        0.0753364864
vibration 7
          -0.0000000792       -0.0418640462        0.0000000001
           0.0000000000       -0.0000920637       -0.0000000000
           0.5520750483        0.1672203802        0.0000000000
          -0.2760370526        0.1672210061        0.4781104680
          -0.2760370530        0.1672210063       -0.4781104686
vibration 8
          -0.0966949490        0.0000001092       -0.0000537190
           0.0002492495       -0.0000000002        0.0000001385
           0.7758540473        0.2414236323       -0.0000078145
           0.1832239007       -0.1205963075       -0.3417243752
           0.1836039484       -0.1208286170        0.3423670086
vibration 9
           0.0000537190       -0.0000000001       -0.0966949504
          -0.0000001385        0.0000000000        0.0002492495
          -0.0004310267       -0.0001341232       -0.0140661300
          -0.3421471714        0.2091470727        0.5785640458
           0.3419433793       -0.2090129485        0.5781839971
