[Molden Format]

[FREQ]
         782.4666869638
        1137.5451062033
        1137.5451159667
        1538.1535961738
        1628.9834389269
        1628.9834551330
        3268.9767673463
        3372.6934848036
        3372.6935635364

[FR-COORD]
C         -0.0000021459       -2.3202051546        0.0000000000
CL         0.0000009754        1.0525693756        0.0000000000
H         -1.9318838299       -2.9650239673        0.0000000000
H          0.9659377677       -2.9650266729       -1.6730580842
H          0.9659377677       -2.9650266729        1.6730580842

[FR-NORM-COORD]
vibration 1
           0.0000005612        0.6064640033       -0.0000000008
          -0.0000002275       -0.2456097034        0.0000000002
           0.0507534502        0.4336471478       -0.0000000001
          -0.0253761200        0.4336472129        0.0439534400
          -0.0253761180        0.4336472243       -0.0439534367
vibration 2
          -0.0114812812        0.0000000089       -0.1134271479
           0.0022120734       -0.0000000018        0.0218537615
           0.0130356596       -0.0759923165        0.2660760114
           0.0829070152       -0.6121739412        0.1691245943
          -0.0359900994        0.6881662149        0.1570895138
vibration 3
           0.1134271509       -0.0000001013       -0.0114812811
          -0.0218537614        0.0000000205        0.0022120734
          -0.1287833473        0.7507517651        0.0269326488
          -0.2257359252       -0.4411869119       -0.0429392048
          -0.2377708859       -0.3095643593        0.0759591293
vibration 4
          -0.0000000932       -0.1054446224        0.0000000008
          -0.0000000107       -0.0104720595       -0.0000000001
          -0.1959574200        0.5396214462       -0.0000000029
           0.0979794496        0.5396211375       -0.1697045514
           0.0979794515        0.5396211317        0.1697045491
vibration 5
          -0.0657005880        0.0000000589        0.0025387214
          -0.0028774313        0.0000000029        0.0001111862
          -0.1487994808        0.3124926426       -0.0284737278
           0.5006429716       -0.1667039233        0.3807057646
           0.5302813821       -0.1457895232       -0.3863180215
vibration 6
          -0.0025387215        0.0000000024       -0.0657005914
          -0.0001111861       -0.0000000000       -0.0028774306
          -0.0057497268        0.0120749572        0.7368830277
           0.4034300127        0.2645885650        0.0874401244
          -0.3635943002       -0.2766635498        0.0578017347
vibration 7
          -0.0000000822       -0.0419907434        0.0000000002
           0.0000000000       -0.0001007413       -0.0000000000
           0.5518887943        0.1678236045        0.0000000001
          -0.2759439070        0.1678242185        0.4779491308
          -0.2759439088        0.1678242196       -0.4779491338
vibration 8
          -0.0964977714        0.0000001108       -0.0003612794
           0.0002519672       -0.0000000002        0.0000009433
           0.7751820803        0.2435488190       -0.0000562420
           0.1812478306       -0.1209853967       -0.3400061423
           0.1838099288       -0.1225647334        0.3443313451
vibration 9
           0.0003612795       -0.0000000007       -0.0964977721
          -0.0000009433        0.0000000000        0.0002519672
          -0.0029022143       -0.0009118255       -0.0150222196
          -0.3428516854        0.2113764001        0.5789120864
           0.3414849386       -0.2104645680        0.5763499826
