[Molden Format]

[FREQ]
         757.2992849287
        1067.3582456133
        1067.4020984297
        1443.5556634034
        1524.4364662285
        1524.4824903510
        3098.7940503467
        3200.5865893908
        3200.7310467246

[FR-COORD]
C         -0.0000017063       -2.3234618394        0.0000000000
CL         0.0000008034        1.0556528398        0.0000000000
H         -1.9539124227       -2.9877605419        0.0000000000
H          0.9769524325       -2.9877640004       -1.6921355250
H          0.9769524325       -2.9877640004        1.6921355250

[FR-NORM-COORD]
vibration 1
          -0.0000002200        0.6001399377       -0.0000000000
          -0.0000000443       -0.2437268114        0.0000000000
           0.0503369838        0.4369649808       -0.0000000000
          -0.0251664142        0.4369724087        0.0435925537
          -0.0251664142        0.4369724087       -0.0435925537
vibration 2
           0.0000000000       -0.0000000000        0.1159257185
          -0.0000000000       -0.0000000000       -0.0222467758
          -0.0000000000        0.0000000000       -0.2718120980
          -0.0597647627        0.6513040430       -0.1682957597
           0.0597647627       -0.6513040430       -0.1682957597
vibration 3
           0.1159177028       -0.0000006448       -0.0000000000
          -0.0222468094       -0.0000003491        0.0000000000
          -0.1337862263        0.7520907644        0.0000000000
          -0.2372603923       -0.3760354862       -0.0597433349
          -0.2372603923       -0.3760354862        0.0597433349
vibration 4
          -0.0000013662       -0.1064545511        0.0000000000
           0.0000002270       -0.0100283131        0.0000000000
          -0.1988513469        0.5384896256        0.0000000000
           0.0994298699        0.5385011577       -0.1722125643
           0.0994298699        0.5385011577        0.1722125643
vibration 5
          -0.0654769866       -0.0000000015       -0.0000000000
          -0.0029434255       -0.0000000166       -0.0000000000
          -0.1477578952        0.3176048282        0.0000000000
           0.5147551033       -0.1588021170        0.3825029546
           0.5147551033       -0.1588021170       -0.3825029546
vibration 6
           0.0000000000        0.0000000000       -0.0654718264
           0.0000000000        0.0000000000       -0.0029449742
           0.0000000000       -0.0000000000        0.7355712214
           0.3824859290        0.2751049296        0.0730866918
          -0.3824859290       -0.2751049296        0.0730866918
vibration 7
           0.0000053122       -0.0428245785       -0.0000000000
          -0.0000000024        0.0000015568        0.0000000000
           0.5511729809        0.1699352885       -0.0000000000
          -0.2756180745        0.1699578079        0.4773858185
          -0.2756180745        0.1699578079       -0.4773858185
vibration 8
           0.0000000000        0.0000000000       -0.0956824808
          -0.0000000000       -0.0000000000        0.0002152148
          -0.0000000000       -0.0000000000       -0.0192365054
          -0.3433837429        0.2147077151        0.5755220142
           0.3433837429       -0.2147077151        0.5755220142
vibration 9
          -0.0956874066       -0.0000023731       -0.0000000000
           0.0002155267       -0.0000000008        0.0000000000
           0.7738093931        0.2479299574       -0.0000000000
           0.1790229792       -0.1239508361       -0.3433420739
           0.1790229792       -0.1239508361        0.3433420739
