[Molden Format]

[FREQ]
         768.5763958930
        1131.5751518204
        1131.5751602034
        1527.2334953425
        1617.7794367886
        1617.7794563102
        3245.9291955982
        3348.0906296417
        3348.0907053866

[FR-COORD]
C         -0.0000021507       -2.3270215843        0.0000000000
CL         0.0000009773        1.0548958529        0.0000000000
H         -1.9319271482       -2.9648774787        0.0000000000
H          0.9659594231       -2.9648801783       -1.6730956071
H          0.9659594231       -2.9648801783        1.6730956071

[FR-NORM-COORD]
vibration 1
           0.0000005610        0.6041970884       -0.0000000000
          -0.0000002271       -0.2449449411        0.0000000000
           0.0496249996        0.4349559173        0.0000000001
          -0.0248119004        0.4349559753        0.0429761649
          -0.0248119004        0.4349559759       -0.0429761648
vibration 2
          -0.0005794003        0.0000000006        0.1138894962
           0.0001111938       -0.0000000001       -0.0218567517
           0.0006438519       -0.0038332595       -0.2719018671
          -0.0617362408        0.6544516789       -0.1625746247
           0.0641330785       -0.6506184217       -0.1632149772
vibration 3
           0.1138894993       -0.0000001030        0.0005794003
          -0.0218567515        0.0000000210       -0.0001111938
          -0.1265583930        0.7534825925       -0.0013832709
          -0.2358867331       -0.3734213482       -0.0637639785
          -0.2352463868       -0.3800607484        0.0621065598
vibration 4
          -0.0000000920       -0.1060170252       -0.0000000000
          -0.0000000105       -0.0102892450       -0.0000000000
          -0.1954233500        0.5397788786        0.0000000002
           0.0977124050        0.5397785806       -0.1692420428
           0.0977124048        0.5397785805        0.1692420429
vibration 5
          -0.0650308357        0.0000000571       -0.0001335171
          -0.0030329318        0.0000000025       -0.0000062270
          -0.1494304589        0.3164100563        0.0015106859
           0.5152750757       -0.1576428135        0.3834613566
           0.5137010843       -0.1587680083       -0.3831662160
vibration 6
           0.0001335171       -0.0000000001       -0.0650308386
           0.0000062270       -0.0000000000       -0.0030329311
           0.0003068010       -0.0006496328        0.7357945560
           0.3822577444        0.2743434439        0.0710885819
          -0.3843703720       -0.2736938099        0.0726625722
vibration 7
          -0.0000000792       -0.0418640462       -0.0000000000
           0.0000000000       -0.0000920637        0.0000000000
           0.5520750485        0.1672203801       -0.0000000000
          -0.2760370529        0.1672210061        0.4781104684
          -0.2760370527        0.1672210060       -0.4781104680
vibration 8
          -0.0966949639        0.0000001092        0.0000017351
           0.0002492495       -0.0000000002       -0.0000000045
           0.7758541668        0.2414236693        0.0000002524
           0.1834200903       -0.1207162326       -0.3420561229
           0.1834078152       -0.1207087292        0.3420353666
vibration 9
          -0.0000017351        0.0000000000       -0.0966949653
           0.0000000045        0.0000000000        0.0002492495
           0.0000139215        0.0000043320       -0.0140661322
          -0.3420420369        0.2090778766        0.5783679729
           0.3420486193       -0.2090822088        0.5783802483
