[Molden Format]

[FREQ]
         768.5763959281
        1131.5751523564
        1131.5751605979
        1527.2334960748
        1617.7794380124
        1617.7794577748
        3245.9291961657
        3348.0906301536
        3348.0907061527

[FR-COORD]
C         -0.0000021507       -2.3270215844        0.0000000000
CL         0.0000009773        1.0548958529        0.0000000000
H         -1.9319271481       -2.9648774787        0.0000000000
H          0.9659594230       -2.9648801784       -1.6730956070
H          0.9659594230       -2.9648801784        1.6730956070

[FR-NORM-COORD]
vibration 1
           0.0000005611        0.6041970884        0.0000000001
          -0.0000002271       -0.2449449411       -0.0000000000
           0.0496249995        0.4349559176       -0.0000000001
          -0.0248119004        0.4349559759        0.0429761647
          -0.0248119004        0.4349559749       -0.0429761650
vibration 2
          -0.0011902397        0.0000000010        0.1138847504
           0.0002284212       -0.0000000002       -0.0218558409
           0.0013226401       -0.0078745178       -0.2718905363
          -0.0604701709        0.6564451158       -0.1622302874
           0.0653939027       -0.6485706029       -0.1635457387
vibration 3
           0.1138847535       -0.0000001030        0.0011902397
          -0.0218558407        0.0000000211       -0.0002284212
          -0.1265531193        0.7534511947       -0.0028416001
          -0.2362144632       -0.3699058174       -0.0646350322
          -0.2348990243       -0.3835448821        0.0612302607
vibration 4
          -0.0000000919       -0.1060170252       -0.0000000001
          -0.0000000105       -0.0102892450        0.0000000000
          -0.1954233499        0.5397788787        0.0000000008
           0.0977124048        0.5397785806       -0.1692420431
           0.0977124040        0.5397785805        0.1692420433
vibration 5
          -0.0650309431        0.0000000570       -0.0000621574
          -0.0030329368        0.0000000025       -0.0000028989
          -0.1494307057        0.3164105788        0.0007032828
           0.5148553065       -0.1579437607        0.3833831187
           0.5141225526       -0.1584675825       -0.3832457193
vibration 6
           0.0000621574        0.0000000000       -0.0650309460
           0.0000028989        0.0000000000       -0.0030329361
           0.0001428279       -0.0003024295        0.7357957710
           0.3828229360        0.2741702932        0.0715093193
          -0.3838064461       -0.2738678644        0.0722420725
vibration 7
          -0.0000000794       -0.0418640462        0.0000000000
           0.0000000000       -0.0000920637       -0.0000000000
           0.5520750503        0.1672203806        0.0000000000
          -0.2760370522        0.1672210057        0.4781104672
          -0.2760370525        0.1672210058       -0.4781104677
vibration 8
          -0.0966949603        0.0000001093       -0.0000266797
           0.0002492495       -0.0000000002        0.0000000688
           0.7758541360        0.2414236597       -0.0000038811
           0.1833195708       -0.1206547883       -0.3418861506
           0.1835083221       -0.1207701652        0.3422053155
vibration 9
           0.0000266797       -0.0000000000       -0.0966949616
          -0.0000000688       -0.0000000000        0.0002492495
          -0.0002140701       -0.0000666125       -0.0140661318
          -0.3420959221        0.2091133413        0.5784684647
           0.3419947083       -0.2090467282        0.5782797127
