[Molden Format]

[FREQ]
         768.5763960729
        1131.5751522543
        1131.5751606936
        1527.2334961005
        1617.7794381013
        1617.7794575988
        3245.9291964524
        3348.0906304973
        3348.0907063077

[FR-COORD]
C         -0.0000021507       -2.3270215843        0.0000000000
CL         0.0000009773        1.0548958529        0.0000000000
H         -1.9319271479       -2.9648774790        0.0000000000
H          0.9659594229       -2.9648801786       -1.6730956069
H          0.9659594229       -2.9648801786        1.6730956069

[FR-NORM-COORD]
vibration 1
           0.0000005610        0.6041970885        0.0000000001
          -0.0000002271       -0.2449449412       -0.0000000000
           0.0496249999        0.4349559170       -0.0000000001
          -0.0248119003        0.4349559759        0.0429761650
          -0.0248119003        0.4349559752       -0.0429761651
vibration 2
          -0.0009056791        0.0000000008        0.1138873689
           0.0001738106       -0.0000000001       -0.0218563435
           0.0010064254       -0.0059918907       -0.2718967880
          -0.0610601969        0.6555188054       -0.1623912806
           0.0648067708       -0.6495269185       -0.1633922360
vibration 3
           0.1138873720       -0.0000001029        0.0009056791
          -0.0218563432        0.0000000210       -0.0001738106
          -0.1265560291        0.7534685184       -0.0021622349
          -0.2360626327       -0.3715448820       -0.0642294755
          -0.2350616868       -0.3819231409        0.0616387113
vibration 4
          -0.0000000919       -0.1060170252       -0.0000000001
          -0.0000000105       -0.0102892451        0.0000000000
          -0.1954233498        0.5397788786        0.0000000005
           0.0977124046        0.5397785806       -0.1692420431
           0.0977124041        0.5397785805        0.1692420433
vibration 5
          -0.0650301046        0.0000000570       -0.0003360397
          -0.0030328977        0.0000000025       -0.0000156723
          -0.1494287789        0.3164064990        0.0038021374
           0.5164630289       -0.1567876705        0.3836808856
           0.5125015624       -0.1596195928       -0.3829380673
vibration 6
           0.0003360397       -0.0000000002       -0.0650301075
           0.0000156723       -0.0000000000       -0.0030328970
           0.0007721656       -0.0016350144        0.7357862834
           0.3806511878        0.2748330544        0.0698940373
          -0.3859683092       -0.2731980370        0.0738555008
vibration 7
          -0.0000000793       -0.0418640462        0.0000000001
           0.0000000000       -0.0000920637       -0.0000000000
           0.5520750492        0.1672203802       -0.0000000000
          -0.2760370524        0.1672210058        0.4781104675
          -0.2760370529        0.1672210061       -0.4781104684
vibration 8
          -0.0966949278        0.0000001092       -0.0000835786
           0.0002492495       -0.0000000002        0.0000002154
           0.7758538766        0.2414235789       -0.0000121581
           0.1831182366       -0.1205317170       -0.3415456982
           0.1837095323       -0.1208931550        0.3425455369
vibration 9
           0.0000835786       -0.0000000001       -0.0966949292
          -0.0000002154        0.0000000000        0.0002492494
          -0.0006706113       -0.0002086751       -0.0140661271
          -0.3422037351        0.2091843030        0.5786695433
           0.3418866658       -0.2089756264        0.5780782460
