[Molden Format]

[FREQ]
        2438.7088433911

[FR-COORD]
C          0.0000000000        0.0000000000       -1.2025483180
O          0.0000000000        0.0000000000        0.9021979898

[FR-NORM-COORD]
vibration 1
           0.0000000000       -0.0000000000        0.7999084352
          -0.0000000000        0.0000000000       -0.6001220670
