[Molden Format]

[FREQ]
        2440.9117687301

[FR-COORD]
C          0.0000000000        0.0000000000       -1.1927851399
O          0.0000000000        0.0000000000        0.8948732781

[FR-NORM-COORD]
vibration 1
           0.0000000000       -0.0000000000        0.7999084352
           0.0000000000        0.0000000000       -0.6001220670
