[Molden Format]

[FREQ]
        2159.7661925964

[FR-COORD]
C          0.0000000000        0.0000000000       -1.2385347602
O          0.0000000000        0.0000000000        0.9291964024

[FR-NORM-COORD]
vibration 1
           0.0000000000        0.0000000000        0.7999084352
           0.0000000000        0.0000000000       -0.6001220670
