[Molden Format]

[FREQ]
        2438.7088145859

[FR-COORD]
C          0.0000000000        0.0000000000       -1.2025483216
O          0.0000000000        0.0000000000        0.9021979925

[FR-NORM-COORD]
vibration 1
          -0.0000000000       -0.0000000000        0.7999084352
          -0.0000000000       -0.0000000000       -0.6001220670
