[Molden Format]

[FREQ]
        1826.6144828177
        4070.3067481944
        4188.6227768604

[FR-COORD]
O          0.0000000000        0.0000000000       -0.1212566968
H          0.0000000000       -1.4250574388        0.9622158855
H         -0.0000000000        1.4250574388        0.9622158855

[FR-NORM-COORD]
vibration 1
           0.0000000000        0.0000000000       -0.0704934783
           0.0000000000        0.4296471534        0.5593913284
          -0.0000000000       -0.4296471534        0.5593913284
vibration 2
          -0.0000000000       -0.0000000000        0.0501491914
          -0.0000000000        0.5834181274       -0.3979520303
           0.0000000000       -0.5834181268       -0.3979520299
vibration 3
          -0.0000000000       -0.0707565926       -0.0000000000
          -0.0000000000        0.5614792352       -0.4268932187
           0.0000000000        0.5614792358        0.4268932192
