
Host: Maxs-Air

Timers On : Sun Jul  4 13:32:14 2021
Timers Off: Sun Jul  4 13:32:20 2021

Wall Time:        5.68 seconds

                                                       Time (seconds)
Module                                       User      System        Wall        Calls
DFH: sparsity prep                  :      0.083u      0.000s      0.025w     12 calls
Libint2ERI::Libint2ERI              :      0.317u      0.017s      0.051w    176 calls
DFH: initialize()                   :      0.533u      0.083s      0.105w     12 calls
DFH: AO Construction                :      0.017u      0.000s      0.006w     12 calls
DFH: AO-Met. Contraction            :      0.017u      0.000s      0.003w     12 calls
HF: Form core H                     :      0.150u      0.000s      0.022w     10 calls
HF: Form S/X                        :      0.017u      0.000s      0.002w     10 calls
HF: Guess                           :      0.683u      0.067s      0.117w     10 calls
SAD Guess                           :      0.667u      0.067s      0.111w      8 calls
HF: Form G                          :      0.133u      0.000s      0.012w     99 calls
JK: D                               :      0.000u      0.000s      0.001w    125 calls
JK: USO2AO                          :      0.017u      0.000s      0.002w    125 calls
JK: JK                              :      0.200u      0.000s      0.023w    125 calls
DFH: compute_JK()                   :      0.200u      0.000s      0.022w    125 calls
DFH: Grabbing AOs                   :      0.000u      0.000s      0.000w    125 calls
DFH: compute_J                      :      0.033u      0.000s      0.004w    125 calls
DFH: compute_K                      :      0.050u      0.000s      0.017w    125 calls
JK: AO2USO                          :      0.017u      0.000s      0.001w    125 calls
HF: Form F                          :      0.000u      0.000s      0.000w     99 calls
HF: Form D                          :      0.000u      0.000s      0.000w     99 calls
HF: DIIS                            :      0.083u      0.017s      0.037w     91 calls
DIISManager::add_entry              :      0.000u      0.000s      0.003w     89 calls
DIISManager::extrapolate            :      0.017u      0.000s      0.004w     89 calls
bMatrix setup                       :      0.000u      0.000s      0.001w     89 calls
bMatrix pseudoinverse               :      0.017u      0.000s      0.001w     89 calls
New vector                          :      0.000u      0.000s      0.001w     89 calls
HF: Form C                          :      0.017u      0.000s      0.003w     91 calls
Grad: V T Perturb                   :      3.517u      0.400s      0.593w      5 calls
Grad: S                             :      0.000u      0.000s      0.000w      5 calls
Grad: JK                            :      0.383u      0.033s      0.077w      5 calls
JKGrad: Amn                         :      0.083u      0.033s      0.018w      5 calls
JKGrad: Awmn                        :      0.000u      0.000s      0.000w      5 calls
JKGrad: AB                          :      0.117u      0.000s      0.018w      5 calls
JKGrad: UV                          :      0.000u      0.000s      0.001w      5 calls
JKGrad: ABx                         :      0.050u      0.000s      0.006w      5 calls
JKGrad: Amnx                        :      0.100u      0.000s      0.028w      5 calls
Grad: XC                            :      0.000u      0.000s      0.000w      5 calls
Hess: XC                            :      0.000u      0.000s      0.000w      2 calls
Hess: V                             :      2.067u      0.317s      0.385w      2 calls
Hess: T                             :      0.000u      0.000s      0.000w      2 calls
Hess: S                             :      0.000u      0.000s      0.000w      2 calls
Hess: JK                            :      1.150u      0.050s      0.191w      2 calls

--------------------------------------------------------------------------------------
DFH: sparsity prep                  :      0.083u      0.000s      0.025w     12 calls
| Libint2ERI::Libint2ERI            :      0.033u      0.000s      0.017w     12 calls
DFH: initialize()                   :      0.533u      0.083s      0.105w     12 calls
| Libint2ERI::Libint2ERI            :      0.050u      0.017s      0.007w     60 calls
| DFH: AO Construction              :      0.017u      0.000s      0.006w     12 calls
| DFH: AO-Met. Contraction          :      0.017u      0.000s      0.003w     12 calls
HF: Form core H                     :      0.150u      0.000s      0.022w     10 calls
HF: Form S/X                        :      0.017u      0.000s      0.002w     10 calls
HF: Guess                           :      0.683u      0.067s      0.117w     10 calls
| SAD Guess                         :      0.667u      0.067s      0.111w      8 calls
HF: Form G                          :      0.133u      0.000s      0.012w     99 calls
| JK: D                             :      0.000u      0.000s      0.000w     99 calls
| JK: USO2AO                        :      0.017u      0.000s      0.001w     99 calls
| JK: JK                            :      0.083u      0.000s      0.008w     99 calls
| | DFH: compute_JK()               :      0.083u      0.000s      0.008w     99 calls
| | | DFH: Grabbing AOs             :      0.000u      0.000s      0.000w     99 calls
| | | DFH: compute_J                :      0.000u      0.000s      0.001w     99 calls
| | | DFH: compute_K                :      0.017u      0.000s      0.005w     99 calls
| JK: AO2USO                        :      0.017u      0.000s      0.001w     99 calls
HF: Form F                          :      0.000u      0.000s      0.000w     99 calls
HF: Form D                          :      0.000u      0.000s      0.000w     99 calls
HF: DIIS                            :      0.083u      0.017s      0.037w     91 calls
| DIISManager::add_entry            :      0.000u      0.000s      0.003w     89 calls
| DIISManager::extrapolate          :      0.017u      0.000s      0.004w     89 calls
| | bMatrix setup                   :      0.000u      0.000s      0.001w     89 calls
| | bMatrix pseudoinverse           :      0.017u      0.000s      0.001w     89 calls
| | New vector                      :      0.000u      0.000s      0.001w     89 calls
HF: Form C                          :      0.017u      0.000s      0.003w     91 calls
Grad: V T Perturb                   :      3.517u      0.400s      0.593w      5 calls
Grad: S                             :      0.000u      0.000s      0.000w      5 calls
Grad: JK                            :      0.383u      0.033s      0.077w      5 calls
| JKGrad: Amn                       :      0.083u      0.033s      0.018w      5 calls
| | Libint2ERI::Libint2ERI          :      0.067u      0.000s      0.011w     20 calls
| JKGrad: Awmn                      :      0.000u      0.000s      0.000w      5 calls
| JKGrad: AB                        :      0.117u      0.000s      0.018w      5 calls
| | Libint2ERI::Libint2ERI          :      0.017u      0.000s      0.000w     20 calls
| JKGrad: UV                        :      0.000u      0.000s      0.001w      5 calls
| JKGrad: ABx                       :      0.050u      0.000s      0.006w      5 calls
| | Libint2ERI::Libint2ERI          :      0.033u      0.000s      0.000w     20 calls
| JKGrad: Amnx                      :      0.100u      0.000s      0.028w      5 calls
| | Libint2ERI::Libint2ERI          :      0.100u      0.000s      0.012w     20 calls
Grad: XC                            :      0.000u      0.000s      0.000w      5 calls
Hess: XC                            :      0.000u      0.000s      0.000w      2 calls
Hess: V                             :      2.067u      0.317s      0.385w      2 calls
Hess: T                             :      0.000u      0.000s      0.000w      2 calls
Hess: S                             :      0.000u      0.000s      0.000w      2 calls
Hess: JK                            :      1.150u      0.050s      0.191w      2 calls
| Libint2ERI::Libint2ERI            :      0.017u      0.000s      0.002w     12 calls
Libint2ERI::Libint2ERI              :      0.000u      0.000s      0.001w     12 calls
JK: D                               :      0.000u      0.000s      0.000w     26 calls
JK: USO2AO                          :      0.000u      0.000s      0.001w     26 calls
JK: JK                              :      0.117u      0.000s      0.014w     26 calls
| DFH: compute_JK()                 :      0.117u      0.000s      0.014w     26 calls
| | DFH: Grabbing AOs               :      0.000u      0.000s      0.000w     26 calls
| | DFH: compute_J                  :      0.033u      0.000s      0.002w     26 calls
| | DFH: compute_K                  :      0.033u      0.000s      0.012w     26 calls
JK: AO2USO                          :      0.000u      0.000s      0.000w     26 calls

**************************************************************************************

Host: Maxs-MacBook-Air.local

Timers On : Tue Jul  6 02:31:28 2021
Timers Off: Tue Jul  6 02:31:31 2021

Wall Time:        2.61 seconds

                                                       Time (seconds)
Module                                       User      System        Wall        Calls

--------------------------------------------------------------------------------------

**************************************************************************************

Host: Maxs-MacBook-Air.local

Timers On : Tue Jul  6 02:32:45 2021
Timers Off: Tue Jul  6 02:32:50 2021

Wall Time:        5.26 seconds

                                                       Time (seconds)
Module                                       User      System        Wall        Calls
DFH: sparsity prep                  :      0.100u      0.000s      0.030w     10 calls
Libint2ERI::Libint2ERI              :      0.367u      0.017s      0.074w    164 calls
DFH: initialize()                   :      0.650u      0.083s      0.122w     10 calls
DFH: AO Construction                :      0.067u      0.000s      0.008w     10 calls
DFH: AO-Met. Contraction            :      0.000u      0.000s      0.005w     10 calls
HF: Form core H                     :      0.133u      0.000s      0.020w      8 calls
HF: Form S/X                        :      0.017u      0.000s      0.001w      8 calls
HF: Guess                           :      0.650u      0.033s      0.113w      8 calls
SAD Guess                           :      0.650u      0.033s      0.109w      6 calls
HF: Form G                          :      0.117u      0.017s      0.018w     80 calls
JK: D                               :      0.000u      0.000s      0.001w    104 calls
JK: USO2AO                          :      0.000u      0.000s      0.002w    104 calls
JK: JK                              :      0.267u      0.000s      0.039w    104 calls
DFH: compute_JK()                   :      0.267u      0.000s      0.039w    104 calls
DFH: Grabbing AOs                   :      0.000u      0.000s      0.000w    104 calls
DFH: compute_J                      :      0.000u      0.000s      0.004w    104 calls
DFH: compute_K                      :      0.200u      0.000s      0.032w    104 calls
JK: AO2USO                          :      0.033u      0.017s      0.002w    104 calls
HF: Form F                          :      0.000u      0.000s      0.001w     80 calls
HF: Form D                          :      0.000u      0.000s      0.000w     80 calls
HF: DIIS                            :      0.150u      0.000s      0.031w     74 calls
DIISManager::add_entry              :      0.017u      0.000s      0.003w     72 calls
DIISManager::extrapolate            :      0.017u      0.000s      0.003w     72 calls
bMatrix setup                       :      0.000u      0.000s      0.001w     72 calls
bMatrix pseudoinverse               :      0.017u      0.000s      0.001w     72 calls
New vector                          :      0.000u      0.000s      0.001w     72 calls
HF: Form C                          :      0.017u      0.000s      0.003w     74 calls
Grad: V T Perturb                   :      3.483u      0.217s      0.564w      5 calls
Grad: S                             :      0.017u      0.000s      0.000w      5 calls
Grad: JK                            :      0.567u      0.017s      0.105w      5 calls
JKGrad: Amn                         :      0.150u      0.017s      0.028w      5 calls
JKGrad: Awmn                        :      0.000u      0.000s      0.000w      5 calls
JKGrad: AB                          :      0.150u      0.000s      0.024w      5 calls
JKGrad: UV                          :      0.000u      0.000s      0.001w      5 calls
JKGrad: ABx                         :      0.083u      0.000s      0.006w      5 calls
JKGrad: Amnx                        :      0.167u      0.000s      0.038w      5 calls
Grad: XC                            :      0.000u      0.000s      0.000w      5 calls
Hess: XC                            :      0.000u      0.000s      0.000w      2 calls
Hess: V                             :      2.167u      0.283s      0.395w      2 calls
Hess: T                             :      0.000u      0.000s      0.001w      2 calls
Hess: S                             :      0.000u      0.000s      0.000w      2 calls
Hess: JK                            :      1.533u      0.050s      0.249w      2 calls

--------------------------------------------------------------------------------------
DFH: sparsity prep                  :      0.100u      0.000s      0.030w     10 calls
| Libint2ERI::Libint2ERI            :      0.050u      0.000s      0.020w     10 calls
DFH: initialize()                   :      0.650u      0.083s      0.122w     10 calls
| Libint2ERI::Libint2ERI            :      0.050u      0.017s      0.010w     50 calls
| DFH: AO Construction              :      0.067u      0.000s      0.008w     10 calls
| DFH: AO-Met. Contraction          :      0.000u      0.000s      0.005w     10 calls
HF: Form core H                     :      0.133u      0.000s      0.020w      8 calls
HF: Form S/X                        :      0.017u      0.000s      0.001w      8 calls
HF: Guess                           :      0.650u      0.033s      0.113w      8 calls
| SAD Guess                         :      0.650u      0.033s      0.109w      6 calls
HF: Form G                          :      0.117u      0.017s      0.018w     80 calls
| JK: D                             :      0.000u      0.000s      0.000w     80 calls
| JK: USO2AO                        :      0.000u      0.000s      0.001w     80 calls
| JK: JK                            :      0.067u      0.000s      0.014w     80 calls
| | DFH: compute_JK()               :      0.067u      0.000s      0.014w     80 calls
| | | DFH: Grabbing AOs             :      0.000u      0.000s      0.000w     80 calls
| | | DFH: compute_J                :      0.000u      0.000s      0.002w     80 calls
| | | DFH: compute_K                :      0.017u      0.000s      0.011w     80 calls
| JK: AO2USO                        :      0.033u      0.017s      0.001w     80 calls
HF: Form F                          :      0.000u      0.000s      0.001w     80 calls
HF: Form D                          :      0.000u      0.000s      0.000w     80 calls
HF: DIIS                            :      0.150u      0.000s      0.031w     74 calls
| DIISManager::add_entry            :      0.017u      0.000s      0.003w     72 calls
| DIISManager::extrapolate          :      0.017u      0.000s      0.003w     72 calls
| | bMatrix setup                   :      0.000u      0.000s      0.001w     72 calls
| | bMatrix pseudoinverse           :      0.017u      0.000s      0.001w     72 calls
| | New vector                      :      0.000u      0.000s      0.001w     72 calls
HF: Form C                          :      0.017u      0.000s      0.003w     74 calls
Grad: V T Perturb                   :      3.483u      0.217s      0.564w      5 calls
Grad: S                             :      0.017u      0.000s      0.000w      5 calls
Grad: JK                            :      0.567u      0.017s      0.105w      5 calls
| JKGrad: Amn                       :      0.150u      0.017s      0.028w      5 calls
| | Libint2ERI::Libint2ERI          :      0.100u      0.000s      0.018w     20 calls
| JKGrad: Awmn                      :      0.000u      0.000s      0.000w      5 calls
| JKGrad: AB                        :      0.150u      0.000s      0.024w      5 calls
| | Libint2ERI::Libint2ERI          :      0.000u      0.000s      0.001w     20 calls
| JKGrad: UV                        :      0.000u      0.000s      0.001w      5 calls
| JKGrad: ABx                       :      0.083u      0.000s      0.006w      5 calls
| | Libint2ERI::Libint2ERI          :      0.000u      0.000s      0.001w     20 calls
| JKGrad: Amnx                      :      0.167u      0.000s      0.038w      5 calls
| | Libint2ERI::Libint2ERI          :      0.100u      0.000s      0.019w     20 calls
Grad: XC                            :      0.000u      0.000s      0.000w      5 calls
Hess: XC                            :      0.000u      0.000s      0.000w      2 calls
Hess: V                             :      2.167u      0.283s      0.395w      2 calls
Hess: T                             :      0.000u      0.000s      0.001w      2 calls
Hess: S                             :      0.000u      0.000s      0.000w      2 calls
Hess: JK                            :      1.533u      0.050s      0.249w      2 calls
| Libint2ERI::Libint2ERI            :      0.033u      0.000s      0.003w     12 calls
Libint2ERI::Libint2ERI              :      0.033u      0.000s      0.002w     12 calls
JK: D                               :      0.000u      0.000s      0.000w     24 calls
JK: USO2AO                          :      0.000u      0.000s      0.001w     24 calls
JK: JK                              :      0.200u      0.000s      0.024w     24 calls
| DFH: compute_JK()                 :      0.200u      0.000s      0.024w     24 calls
| | DFH: Grabbing AOs               :      0.000u      0.000s      0.000w     24 calls
| | DFH: compute_J                  :      0.000u      0.000s      0.002w     24 calls
| | DFH: compute_K                  :      0.183u      0.000s      0.021w     24 calls
JK: AO2USO                          :      0.000u      0.000s      0.000w     24 calls

**************************************************************************************

Host: Maxs-MacBook-Air.local

Timers On : Tue Jul  6 02:35:16 2021
Timers Off: Tue Jul  6 02:35:21 2021

Wall Time:        4.98 seconds

                                                       Time (seconds)
Module                                       User      System        Wall        Calls
DFH: sparsity prep                  :      0.133u      0.000s      0.019w     10 calls
Libint2ERI::Libint2ERI              :      0.383u      0.017s      0.067w    164 calls
DFH: initialize()                   :      0.700u      0.050s      0.128w     10 calls
DFH: AO Construction                :      0.067u      0.000s      0.008w     10 calls
DFH: AO-Met. Contraction            :      0.000u      0.000s      0.005w     10 calls
HF: Form core H                     :      0.133u      0.000s      0.018w      8 calls
HF: Form S/X                        :      0.000u      0.000s      0.001w      8 calls
HF: Guess                           :      0.650u      0.067s      0.104w      8 calls
SAD Guess                           :      0.633u      0.067s      0.100w      6 calls
HF: Form G                          :      0.117u      0.000s      0.018w     80 calls
JK: D                               :      0.000u      0.000s      0.001w    104 calls
JK: USO2AO                          :      0.017u      0.000s      0.002w    104 calls
JK: JK                              :      0.283u      0.000s      0.039w    104 calls
DFH: compute_JK()                   :      0.283u      0.000s      0.039w    104 calls
DFH: Grabbing AOs                   :      0.000u      0.000s      0.000w    104 calls
DFH: compute_J                      :      0.017u      0.000s      0.004w    104 calls
DFH: compute_K                      :      0.200u      0.000s      0.032w    104 calls
JK: AO2USO                          :      0.000u      0.000s      0.002w    104 calls
HF: Form F                          :      0.000u      0.000s      0.000w     80 calls
HF: Form D                          :      0.000u      0.000s      0.000w     80 calls
HF: DIIS                            :      0.183u      0.017s      0.031w     74 calls
DIISManager::add_entry              :      0.000u      0.017s      0.003w     72 calls
DIISManager::extrapolate            :      0.017u      0.000s      0.003w     72 calls
bMatrix setup                       :      0.000u      0.000s      0.001w     72 calls
bMatrix pseudoinverse               :      0.000u      0.000s      0.001w     72 calls
New vector                          :      0.017u      0.000s      0.001w     72 calls
HF: Form C                          :      0.033u      0.000s      0.003w     74 calls
Grad: V T Perturb                   :      3.617u      0.300s      0.588w      5 calls
Grad: S                             :      0.000u      0.000s      0.000w      5 calls
Grad: JK                            :      0.600u      0.017s      0.103w      5 calls
JKGrad: Amn                         :      0.167u      0.000s      0.030w      5 calls
JKGrad: Awmn                        :      0.000u      0.000s      0.000w      5 calls
JKGrad: AB                          :      0.200u      0.000s      0.028w      5 calls
JKGrad: UV                          :      0.000u      0.000s      0.001w      5 calls
JKGrad: ABx                         :      0.033u      0.000s      0.006w      5 calls
JKGrad: Amnx                        :      0.183u      0.017s      0.032w      5 calls
Grad: XC                            :      0.000u      0.000s      0.000w      5 calls
Hess: XC                            :      0.000u      0.000s      0.000w      2 calls
Hess: V                             :      2.167u      0.283s      0.383w      2 calls
Hess: T                             :      0.000u      0.000s      0.001w      2 calls
Hess: S                             :      0.000u      0.000s      0.000w      2 calls
Hess: JK                            :      1.433u      0.050s      0.229w      2 calls

--------------------------------------------------------------------------------------
DFH: sparsity prep                  :      0.133u      0.000s      0.019w     10 calls
| Libint2ERI::Libint2ERI            :      0.067u      0.000s      0.011w     10 calls
DFH: initialize()                   :      0.700u      0.050s      0.128w     10 calls
| Libint2ERI::Libint2ERI            :      0.033u      0.000s      0.010w     50 calls
| DFH: AO Construction              :      0.067u      0.000s      0.008w     10 calls
| DFH: AO-Met. Contraction          :      0.000u      0.000s      0.005w     10 calls
HF: Form core H                     :      0.133u      0.000s      0.018w      8 calls
HF: Form S/X                        :      0.000u      0.000s      0.001w      8 calls
HF: Guess                           :      0.650u      0.067s      0.104w      8 calls
| SAD Guess                         :      0.633u      0.067s      0.100w      6 calls
HF: Form G                          :      0.117u      0.000s      0.018w     80 calls
| JK: D                             :      0.000u      0.000s      0.000w     80 calls
| JK: USO2AO                        :      0.000u      0.000s      0.001w     80 calls
| JK: JK                            :      0.117u      0.000s      0.014w     80 calls
| | DFH: compute_JK()               :      0.117u      0.000s      0.014w     80 calls
| | | DFH: Grabbing AOs             :      0.000u      0.000s      0.000w     80 calls
| | | DFH: compute_J                :      0.000u      0.000s      0.002w     80 calls
| | | DFH: compute_K                :      0.083u      0.000s      0.011w     80 calls
| JK: AO2USO                        :      0.000u      0.000s      0.001w     80 calls
HF: Form F                          :      0.000u      0.000s      0.000w     80 calls
HF: Form D                          :      0.000u      0.000s      0.000w     80 calls
HF: DIIS                            :      0.183u      0.017s      0.031w     74 calls
| DIISManager::add_entry            :      0.000u      0.017s      0.003w     72 calls
| DIISManager::extrapolate          :      0.017u      0.000s      0.003w     72 calls
| | bMatrix setup                   :      0.000u      0.000s      0.001w     72 calls
| | bMatrix pseudoinverse           :      0.000u      0.000s      0.001w     72 calls
| | New vector                      :      0.017u      0.000s      0.001w     72 calls
HF: Form C                          :      0.033u      0.000s      0.003w     74 calls
Grad: V T Perturb                   :      3.617u      0.300s      0.588w      5 calls
Grad: S                             :      0.000u      0.000s      0.000w      5 calls
Grad: JK                            :      0.600u      0.017s      0.103w      5 calls
| JKGrad: Amn                       :      0.167u      0.000s      0.030w      5 calls
| | Libint2ERI::Libint2ERI          :      0.117u      0.000s      0.020w     20 calls
| JKGrad: Awmn                      :      0.000u      0.000s      0.000w      5 calls
| JKGrad: AB                        :      0.200u      0.000s      0.028w      5 calls
| | Libint2ERI::Libint2ERI          :      0.000u      0.000s      0.001w     20 calls
| JKGrad: UV                        :      0.000u      0.000s      0.001w      5 calls
| JKGrad: ABx                       :      0.033u      0.000s      0.006w      5 calls
| | Libint2ERI::Libint2ERI          :      0.000u      0.000s      0.001w     20 calls
| JKGrad: Amnx                      :      0.183u      0.017s      0.032w      5 calls
| | Libint2ERI::Libint2ERI          :      0.133u      0.017s      0.020w     20 calls
Grad: XC                            :      0.000u      0.000s      0.000w      5 calls
Hess: XC                            :      0.000u      0.000s      0.000w      2 calls
Hess: V                             :      2.167u      0.283s      0.383w      2 calls
Hess: T                             :      0.000u      0.000s      0.001w      2 calls
Hess: S                             :      0.000u      0.000s      0.000w      2 calls
Hess: JK                            :      1.433u      0.050s      0.229w      2 calls
| Libint2ERI::Libint2ERI            :      0.017u      0.000s      0.003w     12 calls
Libint2ERI::Libint2ERI              :      0.017u      0.000s      0.002w     12 calls
JK: D                               :      0.000u      0.000s      0.000w     24 calls
JK: USO2AO                          :      0.017u      0.000s      0.001w     24 calls
JK: JK                              :      0.167u      0.000s      0.025w     24 calls
| DFH: compute_JK()                 :      0.167u      0.000s      0.025w     24 calls
| | DFH: Grabbing AOs               :      0.000u      0.000s      0.000w     24 calls
| | DFH: compute_J                  :      0.017u      0.000s      0.003w     24 calls
| | DFH: compute_K                  :      0.117u      0.000s      0.022w     24 calls
JK: AO2USO                          :      0.000u      0.000s      0.000w     24 calls

**************************************************************************************

Host: Maxs-MacBook-Air.local

Timers On : Tue Jul  6 02:36:43 2021
Timers Off: Tue Jul  6 02:36:57 2021

Wall Time:       14.55 seconds

                                                       Time (seconds)
Module                                       User      System        Wall        Calls
DFH: sparsity prep                  :      0.717u      0.033s      0.107w     29 calls
Libint2ERI::Libint2ERI              :      1.917u      0.100s      0.315w    398 calls
DFH: initialize()                   :      3.550u      0.283s      0.578w     29 calls
DFH: AO Construction                :      0.333u      0.000s      0.058w     29 calls
DFH: AO-Met. Contraction            :      0.367u      0.017s      0.046w     29 calls
HF: Form core H                     :      0.367u      0.000s      0.062w     25 calls
HF: Form S/X                        :      0.033u      0.000s      0.005w     25 calls
HF: Guess                           :      2.483u      0.200s      0.412w     25 calls
SAD Guess                           :      2.417u      0.183s      0.400w     20 calls
HF: Form G                          :      0.767u      0.000s      0.125w    242 calls
JK: D                               :      0.000u      0.000s      0.003w    294 calls
JK: USO2AO                          :      0.100u      0.000s      0.008w    294 calls
JK: JK                              :      2.167u      0.000s      0.382w    294 calls
DFH: compute_JK()                   :      2.083u      0.000s      0.381w    294 calls
DFH: Grabbing AOs                   :      0.000u      0.000s      0.000w    294 calls
DFH: compute_J                      :      0.050u      0.000s      0.026w    294 calls
DFH: compute_K                      :      1.850u      0.000s      0.344w    294 calls
JK: AO2USO                          :      0.183u      0.000s      0.006w    294 calls
HF: Form F                          :      0.000u      0.000s      0.001w    242 calls
HF: Form D                          :      0.017u      0.000s      0.001w    242 calls
HF: DIIS                            :      0.633u      0.050s      0.098w    222 calls
DIISManager::add_entry              :      0.033u      0.033s      0.010w    217 calls
DIISManager::extrapolate            :      0.117u      0.017s      0.011w    217 calls
bMatrix setup                       :      0.050u      0.000s      0.004w    217 calls
bMatrix pseudoinverse               :      0.000u      0.000s      0.003w    217 calls
New vector                          :      0.033u      0.000s      0.003w    217 calls
HF: Form C                          :      0.150u      0.000s      0.021w    222 calls
Grad: V T Perturb                   :      7.717u      0.567s      1.252w     11 calls
Grad: S                             :      0.033u      0.000s      0.002w     11 calls
Grad: JK                            :      2.367u      0.117s      0.376w     11 calls
JKGrad: Amn                         :      0.717u      0.050s      0.118w     11 calls
JKGrad: Awmn                        :      0.000u      0.000s      0.000w     11 calls
JKGrad: AB                          :      0.550u      0.033s      0.085w     11 calls
JKGrad: UV                          :      0.017u      0.000s      0.004w     11 calls
JKGrad: ABx                         :      0.150u      0.000s      0.016w     11 calls
JKGrad: Amnx                        :      0.883u      0.017s      0.137w     11 calls
Grad: XC                            :      0.000u      0.000s      0.000w     11 calls
Hess: XC                            :      0.000u      0.000s      0.000w      4 calls
Hess: V                             :      4.683u      0.533s      0.844w      4 calls
Hess: T                             :      0.000u      0.000s      0.002w      4 calls
Hess: S                             :      0.000u      0.000s      0.001w      4 calls
Hess: JK                            :     11.533u      0.450s      1.832w      4 calls

--------------------------------------------------------------------------------------
DFH: sparsity prep                  :      0.717u      0.033s      0.107w     29 calls
| Libint2ERI::Libint2ERI            :      0.467u      0.033s      0.067w     29 calls
DFH: initialize()                   :      3.550u      0.283s      0.578w     29 calls
| Libint2ERI::Libint2ERI            :      0.383u      0.000s      0.063w    145 calls
| DFH: AO Construction              :      0.333u      0.000s      0.058w     29 calls
| DFH: AO-Met. Contraction          :      0.367u      0.017s      0.046w     29 calls
HF: Form core H                     :      0.367u      0.000s      0.062w     25 calls
HF: Form S/X                        :      0.033u      0.000s      0.005w     25 calls
HF: Guess                           :      2.483u      0.200s      0.412w     25 calls
| SAD Guess                         :      2.417u      0.183s      0.400w     20 calls
HF: Form G                          :      0.767u      0.000s      0.125w    242 calls
| JK: D                             :      0.000u      0.000s      0.001w    242 calls
| JK: USO2AO                        :      0.050u      0.000s      0.004w    242 calls
| JK: JK                            :      0.517u      0.000s      0.112w    242 calls
| | DFH: compute_JK()               :      0.500u      0.000s      0.111w    242 calls
| | | DFH: Grabbing AOs             :      0.000u      0.000s      0.000w    242 calls
| | | DFH: compute_J                :      0.017u      0.000s      0.009w    242 calls
| | | DFH: compute_K                :      0.400u      0.000s      0.094w    242 calls
| JK: AO2USO                        :      0.133u      0.000s      0.005w    242 calls
HF: Form F                          :      0.000u      0.000s      0.001w    242 calls
HF: Form D                          :      0.017u      0.000s      0.001w    242 calls
HF: DIIS                            :      0.633u      0.050s      0.098w    222 calls
| DIISManager::add_entry            :      0.033u      0.033s      0.010w    217 calls
| DIISManager::extrapolate          :      0.117u      0.017s      0.011w    217 calls
| | bMatrix setup                   :      0.050u      0.000s      0.004w    217 calls
| | bMatrix pseudoinverse           :      0.000u      0.000s      0.003w    217 calls
| | New vector                      :      0.033u      0.000s      0.003w    217 calls
HF: Form C                          :      0.150u      0.000s      0.021w    222 calls
Grad: V T Perturb                   :      7.717u      0.567s      1.252w     11 calls
Grad: S                             :      0.033u      0.000s      0.002w     11 calls
Grad: JK                            :      2.367u      0.117s      0.376w     11 calls
| JKGrad: Amn                       :      0.717u      0.050s      0.118w     11 calls
| | Libint2ERI::Libint2ERI          :      0.483u      0.050s      0.082w     44 calls
| JKGrad: Awmn                      :      0.000u      0.000s      0.000w     11 calls
| JKGrad: AB                        :      0.550u      0.033s      0.085w     11 calls
| | Libint2ERI::Libint2ERI          :      0.000u      0.000s      0.002w     44 calls
| JKGrad: UV                        :      0.017u      0.000s      0.004w     11 calls
| JKGrad: ABx                       :      0.150u      0.000s      0.016w     11 calls
| | Libint2ERI::Libint2ERI          :      0.000u      0.000s      0.002w     44 calls
| JKGrad: Amnx                      :      0.883u      0.017s      0.137w     11 calls
| | Libint2ERI::Libint2ERI          :      0.483u      0.017s      0.082w     44 calls
Grad: XC                            :      0.000u      0.000s      0.000w     11 calls
Hess: XC                            :      0.000u      0.000s      0.000w      4 calls
Hess: V                             :      4.683u      0.533s      0.844w      4 calls
Hess: T                             :      0.000u      0.000s      0.002w      4 calls
Hess: S                             :      0.000u      0.000s      0.001w      4 calls
Hess: JK                            :     11.533u      0.450s      1.832w      4 calls
| Libint2ERI::Libint2ERI            :      0.067u      0.000s      0.009w     24 calls
Libint2ERI::Libint2ERI              :      0.033u      0.000s      0.008w     24 calls
JK: D                               :      0.000u      0.000s      0.002w     52 calls
JK: USO2AO                          :      0.050u      0.000s      0.003w     52 calls
JK: JK                              :      1.650u      0.000s      0.270w     52 calls
| DFH: compute_JK()                 :      1.583u      0.000s      0.270w     52 calls
| | DFH: Grabbing AOs               :      0.000u      0.000s      0.000w     52 calls
| | DFH: compute_J                  :      0.033u      0.000s      0.017w     52 calls
| | DFH: compute_K                  :      1.450u      0.000s      0.250w     52 calls
JK: AO2USO                          :      0.050u      0.000s      0.001w     52 calls

**************************************************************************************

Host: Maxs-MacBook-Air.local

Timers On : Tue Jul  6 11:00:52 2021
Timers Off: Tue Jul  6 11:01:08 2021

Wall Time:       16.07 seconds

                                                       Time (seconds)
Module                                       User      System        Wall        Calls
DFH: sparsity prep                  :      0.667u      0.050s      0.122w     29 calls
Libint2ERI::Libint2ERI              :      1.967u      0.133s      0.334w    398 calls
DFH: initialize()                   :      3.850u      0.283s      0.650w     29 calls
DFH: AO Construction                :      0.333u      0.000s      0.063w     29 calls
DFH: AO-Met. Contraction            :      0.333u      0.017s      0.049w     29 calls
HF: Form core H                     :      0.417u      0.033s      0.065w     25 calls
HF: Form S/X                        :      0.033u      0.033s      0.007w     25 calls
HF: Guess                           :      2.500u      0.200s      0.420w     25 calls
SAD Guess                           :      2.433u      0.200s      0.407w     20 calls
HF: Form G                          :      0.950u      0.033s      0.147w    242 calls
JK: D                               :      0.000u      0.000s      0.003w    294 calls
JK: USO2AO                          :      0.033u      0.000s      0.008w    294 calls
JK: JK                              :      2.433u      0.017s      0.402w    294 calls
DFH: compute_JK()                   :      2.333u      0.017s      0.401w    294 calls
DFH: Grabbing AOs                   :      0.000u      0.000s      0.000w    294 calls
DFH: compute_J                      :      0.083u      0.017s      0.028w    294 calls
DFH: compute_K                      :      1.850u      0.000s      0.360w    294 calls
JK: AO2USO                          :      0.183u      0.000s      0.006w    294 calls
HF: Form F                          :      0.000u      0.000s      0.002w    242 calls
HF: Form D                          :      0.017u      0.000s      0.001w    242 calls
HF: DIIS                            :      0.633u      0.033s      0.103w    222 calls
DIISManager::add_entry              :      0.067u      0.017s      0.012w    217 calls
DIISManager::extrapolate            :      0.033u      0.000s      0.012w    217 calls
bMatrix setup                       :      0.017u      0.000s      0.004w    217 calls
bMatrix pseudoinverse               :      0.000u      0.000s      0.003w    217 calls
New vector                          :      0.000u      0.000s      0.003w    217 calls
HF: Form C                          :      0.133u      0.033s      0.023w    222 calls
Grad: V T Perturb                   :      7.317u      0.733s      1.237w     11 calls
Grad: S                             :      0.017u      0.000s      0.001w     11 calls
Grad: JK                            :      2.433u      0.167s      0.407w     11 calls
JKGrad: Amn                         :      0.717u      0.083s      0.123w     11 calls
JKGrad: Awmn                        :      0.000u      0.000s      0.000w     11 calls
JKGrad: AB                          :      0.600u      0.033s      0.096w     11 calls
JKGrad: UV                          :      0.067u      0.000s      0.005w     11 calls
JKGrad: ABx                         :      0.067u      0.000s      0.017w     11 calls
JKGrad: Amnx                        :      0.917u      0.017s      0.151w     11 calls
Grad: XC                            :      0.000u      0.000s      0.000w     11 calls
Hess: XC                            :      0.000u      0.000s      0.000w      4 calls
Hess: V                             :      4.433u      0.733s      0.868w      4 calls
Hess: T                             :      0.000u      0.000s      0.003w      4 calls
Hess: S                             :      0.000u      0.000s      0.001w      4 calls
Hess: JK                            :     12.533u      0.550s      2.021w      4 calls

--------------------------------------------------------------------------------------
DFH: sparsity prep                  :      0.667u      0.050s      0.122w     29 calls
| Libint2ERI::Libint2ERI            :      0.383u      0.033s      0.079w     29 calls
DFH: initialize()                   :      3.850u      0.283s      0.650w     29 calls
| Libint2ERI::Libint2ERI            :      0.367u      0.000s      0.064w    145 calls
| DFH: AO Construction              :      0.333u      0.000s      0.063w     29 calls
| DFH: AO-Met. Contraction          :      0.333u      0.017s      0.049w     29 calls
HF: Form core H                     :      0.417u      0.033s      0.065w     25 calls
HF: Form S/X                        :      0.033u      0.033s      0.007w     25 calls
HF: Guess                           :      2.500u      0.200s      0.420w     25 calls
| SAD Guess                         :      2.433u      0.200s      0.407w     20 calls
HF: Form G                          :      0.950u      0.033s      0.147w    242 calls
| JK: D                             :      0.000u      0.000s      0.001w    242 calls
| JK: USO2AO                        :      0.017u      0.000s      0.004w    242 calls
| JK: JK                            :      0.717u      0.017s      0.133w    242 calls
| | DFH: compute_JK()               :      0.717u      0.017s      0.132w    242 calls
| | | DFH: Grabbing AOs             :      0.000u      0.000s      0.000w    242 calls
| | | DFH: compute_J                :      0.050u      0.017s      0.011w    242 calls
| | | DFH: compute_K                :      0.583u      0.000s      0.110w    242 calls
| JK: AO2USO                        :      0.183u      0.000s      0.005w    242 calls
HF: Form F                          :      0.000u      0.000s      0.002w    242 calls
HF: Form D                          :      0.017u      0.000s      0.001w    242 calls
HF: DIIS                            :      0.633u      0.033s      0.103w    222 calls
| DIISManager::add_entry            :      0.067u      0.017s      0.012w    217 calls
| DIISManager::extrapolate          :      0.033u      0.000s      0.012w    217 calls
| | bMatrix setup                   :      0.017u      0.000s      0.004w    217 calls
| | bMatrix pseudoinverse           :      0.000u      0.000s      0.003w    217 calls
| | New vector                      :      0.000u      0.000s      0.003w    217 calls
HF: Form C                          :      0.133u      0.033s      0.023w    222 calls
Grad: V T Perturb                   :      7.317u      0.733s      1.237w     11 calls
Grad: S                             :      0.017u      0.000s      0.001w     11 calls
Grad: JK                            :      2.433u      0.167s      0.407w     11 calls
| JKGrad: Amn                       :      0.717u      0.083s      0.123w     11 calls
| | Libint2ERI::Libint2ERI          :      0.500u      0.083s      0.084w     44 calls
| JKGrad: Awmn                      :      0.000u      0.000s      0.000w     11 calls
| JKGrad: AB                        :      0.600u      0.033s      0.096w     11 calls
| | Libint2ERI::Libint2ERI          :      0.017u      0.000s      0.002w     44 calls
| JKGrad: UV                        :      0.067u      0.000s      0.005w     11 calls
| JKGrad: ABx                       :      0.067u      0.000s      0.017w     11 calls
| | Libint2ERI::Libint2ERI          :      0.017u      0.000s      0.002w     44 calls
| JKGrad: Amnx                      :      0.917u      0.017s      0.151w     11 calls
| | Libint2ERI::Libint2ERI          :      0.567u      0.017s      0.086w     44 calls
Grad: XC                            :      0.000u      0.000s      0.000w     11 calls
Hess: XC                            :      0.000u      0.000s      0.000w      4 calls
Hess: V                             :      4.433u      0.733s      0.868w      4 calls
Hess: T                             :      0.000u      0.000s      0.003w      4 calls
Hess: S                             :      0.000u      0.000s      0.001w      4 calls
Hess: JK                            :     12.533u      0.550s      2.021w      4 calls
| Libint2ERI::Libint2ERI            :      0.067u      0.000s      0.009w     24 calls
Libint2ERI::Libint2ERI              :      0.050u      0.000s      0.008w     24 calls
JK: D                               :      0.000u      0.000s      0.002w     52 calls
JK: USO2AO                          :      0.017u      0.000s      0.004w     52 calls
JK: JK                              :      1.717u      0.000s      0.270w     52 calls
| DFH: compute_JK()                 :      1.617u      0.000s      0.269w     52 calls
| | DFH: Grabbing AOs               :      0.000u      0.000s      0.000w     52 calls
| | DFH: compute_J                  :      0.033u      0.000s      0.017w     52 calls
| | DFH: compute_K                  :      1.267u      0.000s      0.250w     52 calls
JK: AO2USO                          :      0.000u      0.000s      0.001w     52 calls

**************************************************************************************

Host: Maxs-MacBook-Air.local

Timers On : Tue Jul  6 16:33:36 2021
Timers Off: Tue Jul  6 16:33:51 2021

Wall Time:       15.57 seconds

                                                       Time (seconds)
Module                                       User      System        Wall        Calls
DFH: sparsity prep                  :      0.683u      0.050s      0.119w     29 calls
Libint2ERI::Libint2ERI              :      2.000u      0.117s      0.329w    398 calls
DFH: initialize()                   :      3.633u      0.283s      0.616w     29 calls
DFH: AO Construction                :      0.333u      0.000s      0.063w     29 calls
DFH: AO-Met. Contraction            :      0.400u      0.000s      0.047w     29 calls
HF: Form core H                     :      0.383u      0.000s      0.062w     25 calls
HF: Form S/X                        :      0.033u      0.000s      0.006w     25 calls
HF: Guess                           :      2.483u      0.200s      0.412w     25 calls
SAD Guess                           :      2.383u      0.200s      0.399w     20 calls
HF: Form G                          :      0.783u      0.033s      0.139w    242 calls
JK: D                               :      0.017u      0.000s      0.003w    294 calls
JK: USO2AO                          :      0.017u      0.000s      0.008w    294 calls
JK: JK                              :      2.183u      0.017s      0.394w    294 calls
DFH: compute_JK()                   :      1.917u      0.017s      0.393w    294 calls
DFH: Grabbing AOs                   :      0.000u      0.000s      0.000w    294 calls
DFH: compute_J                      :      0.067u      0.000s      0.026w    294 calls
DFH: compute_K                      :      1.600u      0.017s      0.354w    294 calls
JK: AO2USO                          :      0.267u      0.017s      0.006w    294 calls
HF: Form F                          :      0.000u      0.000s      0.002w    242 calls
HF: Form D                          :      0.000u      0.000s      0.001w    242 calls
HF: DIIS                            :      0.717u      0.067s      0.100w    222 calls
DIISManager::add_entry              :      0.083u      0.033s      0.011w    217 calls
DIISManager::extrapolate            :      0.050u      0.000s      0.011w    217 calls
bMatrix setup                       :      0.033u      0.000s      0.004w    217 calls
bMatrix pseudoinverse               :      0.000u      0.000s      0.003w    217 calls
New vector                          :      0.017u      0.000s      0.003w    217 calls
HF: Form C                          :      0.133u      0.000s      0.021w    222 calls
Grad: V T Perturb                   :      7.883u      0.650s      1.288w     11 calls
Grad: S                             :      0.000u      0.000s      0.001w     11 calls
Grad: JK                            :      2.450u      0.117s      0.396w     11 calls
JKGrad: Amn                         :      0.733u      0.067s      0.121w     11 calls
JKGrad: Awmn                        :      0.000u      0.000s      0.000w     11 calls
JKGrad: AB                          :      0.583u      0.017s      0.088w     11 calls
JKGrad: UV                          :      0.033u      0.000s      0.005w     11 calls
JKGrad: ABx                         :      0.100u      0.017s      0.017w     11 calls
JKGrad: Amnx                        :      0.950u      0.017s      0.150w     11 calls
Grad: XC                            :      0.000u      0.000s      0.000w     11 calls
Hess: XC                            :      0.000u      0.000s      0.000w      4 calls
Hess: V                             :      4.450u      0.767s      0.847w      4 calls
Hess: T                             :      0.000u      0.000s      0.003w      4 calls
Hess: S                             :      0.000u      0.000s      0.001w      4 calls
Hess: JK                            :     10.767u      0.300s      1.671w      4 calls

--------------------------------------------------------------------------------------
DFH: sparsity prep                  :      0.683u      0.050s      0.119w     29 calls
| Libint2ERI::Libint2ERI            :      0.417u      0.033s      0.077w     29 calls
DFH: initialize()                   :      3.633u      0.283s      0.616w     29 calls
| Libint2ERI::Libint2ERI            :      0.383u      0.033s      0.064w    145 calls
| DFH: AO Construction              :      0.333u      0.000s      0.063w     29 calls
| DFH: AO-Met. Contraction          :      0.400u      0.000s      0.047w     29 calls
HF: Form core H                     :      0.383u      0.000s      0.062w     25 calls
HF: Form S/X                        :      0.033u      0.000s      0.006w     25 calls
HF: Guess                           :      2.483u      0.200s      0.412w     25 calls
| SAD Guess                         :      2.383u      0.200s      0.399w     20 calls
HF: Form G                          :      0.783u      0.033s      0.139w    242 calls
| JK: D                             :      0.000u      0.000s      0.001w    242 calls
| JK: USO2AO                        :      0.000u      0.000s      0.004w    242 calls
| JK: JK                            :      0.467u      0.017s      0.125w    242 calls
| | DFH: compute_JK()               :      0.450u      0.017s      0.124w    242 calls
| | | DFH: Grabbing AOs             :      0.000u      0.000s      0.000w    242 calls
| | | DFH: compute_J                :      0.033u      0.000s      0.009w    242 calls
| | | DFH: compute_K                :      0.350u      0.017s      0.105w    242 calls
| JK: AO2USO                        :      0.233u      0.017s      0.005w    242 calls
HF: Form F                          :      0.000u      0.000s      0.002w    242 calls
HF: Form D                          :      0.000u      0.000s      0.001w    242 calls
HF: DIIS                            :      0.717u      0.067s      0.100w    222 calls
| DIISManager::add_entry            :      0.083u      0.033s      0.011w    217 calls
| DIISManager::extrapolate          :      0.050u      0.000s      0.011w    217 calls
| | bMatrix setup                   :      0.033u      0.000s      0.004w    217 calls
| | bMatrix pseudoinverse           :      0.000u      0.000s      0.003w    217 calls
| | New vector                      :      0.017u      0.000s      0.003w    217 calls
HF: Form C                          :      0.133u      0.000s      0.021w    222 calls
Grad: V T Perturb                   :      7.883u      0.650s      1.288w     11 calls
Grad: S                             :      0.000u      0.000s      0.001w     11 calls
Grad: JK                            :      2.450u      0.117s      0.396w     11 calls
| JKGrad: Amn                       :      0.733u      0.067s      0.121w     11 calls
| | Libint2ERI::Libint2ERI          :      0.533u      0.033s      0.083w     44 calls
| JKGrad: Awmn                      :      0.000u      0.000s      0.000w     11 calls
| JKGrad: AB                        :      0.583u      0.017s      0.088w     11 calls
| | Libint2ERI::Libint2ERI          :      0.000u      0.000s      0.002w     44 calls
| JKGrad: UV                        :      0.033u      0.000s      0.005w     11 calls
| JKGrad: ABx                       :      0.100u      0.017s      0.017w     11 calls
| | Libint2ERI::Libint2ERI          :      0.017u      0.000s      0.002w     44 calls
| JKGrad: Amnx                      :      0.950u      0.017s      0.150w     11 calls
| | Libint2ERI::Libint2ERI          :      0.550u      0.017s      0.085w     44 calls
Grad: XC                            :      0.000u      0.000s      0.000w     11 calls
Hess: XC                            :      0.000u      0.000s      0.000w      4 calls
Hess: V                             :      4.450u      0.767s      0.847w      4 calls
Hess: T                             :      0.000u      0.000s      0.003w      4 calls
Hess: S                             :      0.000u      0.000s      0.001w      4 calls
Hess: JK                            :     10.767u      0.300s      1.671w      4 calls
| Libint2ERI::Libint2ERI            :      0.050u      0.000s      0.009w     24 calls
Libint2ERI::Libint2ERI              :      0.050u      0.000s      0.008w     24 calls
JK: D                               :      0.017u      0.000s      0.002w     52 calls
JK: USO2AO                          :      0.017u      0.000s      0.003w     52 calls
JK: JK                              :      1.717u      0.000s      0.269w     52 calls
| DFH: compute_JK()                 :      1.467u      0.000s      0.269w     52 calls
| | DFH: Grabbing AOs               :      0.000u      0.000s      0.000w     52 calls
| | DFH: compute_J                  :      0.033u      0.000s      0.017w     52 calls
| | DFH: compute_K                  :      1.250u      0.000s      0.249w     52 calls
JK: AO2USO                          :      0.033u      0.000s      0.001w     52 calls

**************************************************************************************

Host: Maxs-Air

Timers On : Wed Jul  7 18:50:54 2021
Timers Off: Wed Jul  7 18:50:56 2021

Wall Time:        2.15 seconds

                                                       Time (seconds)
Module                                       User      System        Wall        Calls

--------------------------------------------------------------------------------------

**************************************************************************************

Host: Maxs-Air

Timers On : Wed Jul  7 18:51:20 2021
Timers Off: Wed Jul  7 18:51:40 2021

Wall Time:       20.62 seconds

                                                       Time (seconds)
Module                                       User      System        Wall        Calls
DFH: sparsity prep                  :      0.600u      0.067s      0.108w     30 calls
Libint2ERI::Libint2ERI              :      1.917u      0.133s      0.301w    420 calls
DFH: initialize()                   :      4.367u      0.233s      0.723w     30 calls
DFH: AO Construction                :      0.600u      0.000s      0.107w     30 calls
DFH: AO-Met. Contraction            :      0.567u      0.000s      0.077w     30 calls
HF: Form core H                     :      0.383u      0.017s      0.068w     26 calls
HF: Form S/X                        :      0.033u      0.000s      0.009w     26 calls
HF: Guess                           :      2.650u      0.200s      0.427w     26 calls
SAD Guess                           :      2.517u      0.200s      0.411w     20 calls
HF: Form G                          :      1.267u      0.017s      0.199w    240 calls
JK: D                               :      0.050u      0.000s      0.005w    292 calls
JK: USO2AO                          :      0.083u      0.000s      0.010w    292 calls
JK: JK                              :      4.383u      0.000s      0.705w    292 calls
DFH: compute_JK()                   :      4.367u      0.000s      0.704w    292 calls
DFH: Grabbing AOs                   :      0.000u      0.000s      0.000w    292 calls
DFH: compute_J                      :      0.117u      0.000s      0.053w    292 calls
DFH: compute_K                      :      4.033u      0.000s      0.637w    292 calls
JK: AO2USO                          :      0.117u      0.017s      0.009w    292 calls
HF: Form F                          :      0.017u      0.000s      0.002w    240 calls
HF: Form D                          :      0.000u      0.000s      0.002w    240 calls
HF: DIIS                            :      0.817u      0.100s      0.111w    220 calls
DIISManager::add_entry              :      0.167u      0.017s      0.015w    214 calls
DIISManager::extrapolate            :      0.050u      0.017s      0.013w    214 calls
bMatrix setup                       :      0.017u      0.000s      0.004w    214 calls
bMatrix pseudoinverse               :      0.033u      0.000s      0.004w    214 calls
New vector                          :      0.000u      0.017s      0.003w    214 calls
HF: Form C                          :      0.267u      0.017s      0.036w    220 calls
Grad: V T Perturb                   :      8.767u      0.717s      1.426w     12 calls
Grad: S                             :      0.000u      0.000s      0.001w     12 calls
Grad: JK                            :      3.267u      0.167s      0.522w     12 calls
JKGrad: Amn                         :      0.850u      0.083s      0.135w     12 calls
JKGrad: Awmn                        :      0.000u      0.000s      0.000w     12 calls
JKGrad: AB                          :      0.700u      0.033s      0.108w     12 calls
JKGrad: UV                          :      0.050u      0.000s      0.004w     12 calls
JKGrad: ABx                         :      0.133u      0.000s      0.024w     12 calls
JKGrad: Amnx                        :      1.450u      0.000s      0.232w     12 calls
Grad: XC                            :      0.000u      0.000s      0.000w     12 calls
Hess: XC                            :      0.000u      0.000s      0.000w      4 calls
Hess: V                             :      4.650u      0.633s      0.870w      4 calls
Hess: T                             :      0.000u      0.000s      0.002w      4 calls
Hess: S                             :      0.000u      0.000s      0.001w      4 calls
Hess: JK                            :     19.400u      0.300s      3.504w      4 calls

--------------------------------------------------------------------------------------
DFH: sparsity prep                  :      0.600u      0.067s      0.108w     30 calls
| Libint2ERI::Libint2ERI            :      0.300u      0.050s      0.071w     30 calls
DFH: initialize()                   :      4.367u      0.233s      0.723w     30 calls
| Libint2ERI::Libint2ERI            :      0.433u      0.017s      0.054w    150 calls
| DFH: AO Construction              :      0.600u      0.000s      0.107w     30 calls
| DFH: AO-Met. Contraction          :      0.567u      0.000s      0.077w     30 calls
HF: Form core H                     :      0.383u      0.017s      0.068w     26 calls
HF: Form S/X                        :      0.033u      0.000s      0.009w     26 calls
HF: Guess                           :      2.650u      0.200s      0.427w     26 calls
| SAD Guess                         :      2.517u      0.200s      0.411w     20 calls
HF: Form G                          :      1.267u      0.017s      0.199w    240 calls
| JK: D                             :      0.033u      0.000s      0.002w    240 calls
| JK: USO2AO                        :      0.050u      0.000s      0.006w    240 calls
| JK: JK                            :      1.000u      0.000s      0.179w    240 calls
| | DFH: compute_JK()               :      1.000u      0.000s      0.179w    240 calls
| | | DFH: Grabbing AOs             :      0.000u      0.000s      0.000w    240 calls
| | | DFH: compute_J                :      0.000u      0.000s      0.017w    240 calls
| | | DFH: compute_K                :      0.850u      0.000s      0.150w    240 calls
| JK: AO2USO                        :      0.100u      0.017s      0.008w    240 calls
HF: Form F                          :      0.017u      0.000s      0.002w    240 calls
HF: Form D                          :      0.000u      0.000s      0.002w    240 calls
HF: DIIS                            :      0.817u      0.100s      0.111w    220 calls
| DIISManager::add_entry            :      0.167u      0.017s      0.015w    214 calls
| DIISManager::extrapolate          :      0.050u      0.017s      0.013w    214 calls
| | bMatrix setup                   :      0.017u      0.000s      0.004w    214 calls
| | bMatrix pseudoinverse           :      0.033u      0.000s      0.004w    214 calls
| | New vector                      :      0.000u      0.017s      0.003w    214 calls
HF: Form C                          :      0.267u      0.017s      0.036w    220 calls
Grad: V T Perturb                   :      8.767u      0.717s      1.426w     12 calls
Grad: S                             :      0.000u      0.000s      0.001w     12 calls
Grad: JK                            :      3.267u      0.167s      0.522w     12 calls
| JKGrad: Amn                       :      0.850u      0.083s      0.135w     12 calls
| | Libint2ERI::Libint2ERI          :      0.533u      0.067s      0.077w     48 calls
| JKGrad: Awmn                      :      0.000u      0.000s      0.000w     12 calls
| JKGrad: AB                        :      0.700u      0.033s      0.108w     12 calls
| | Libint2ERI::Libint2ERI          :      0.033u      0.000s      0.002w     48 calls
| JKGrad: UV                        :      0.050u      0.000s      0.004w     12 calls
| JKGrad: ABx                       :      0.133u      0.000s      0.024w     12 calls
| | Libint2ERI::Libint2ERI          :      0.000u      0.000s      0.002w     48 calls
| JKGrad: Amnx                      :      1.450u      0.000s      0.232w     12 calls
| | Libint2ERI::Libint2ERI          :      0.500u      0.000s      0.079w     48 calls
Grad: XC                            :      0.000u      0.000s      0.000w     12 calls
Hess: XC                            :      0.000u      0.000s      0.000w      4 calls
Hess: V                             :      4.650u      0.633s      0.870w      4 calls
Hess: T                             :      0.000u      0.000s      0.002w      4 calls
Hess: S                             :      0.000u      0.000s      0.001w      4 calls
Hess: JK                            :     19.400u      0.300s      3.504w      4 calls
| Libint2ERI::Libint2ERI            :      0.050u      0.000s      0.009w     24 calls
Libint2ERI::Libint2ERI              :      0.067u      0.000s      0.008w     24 calls
JK: D                               :      0.017u      0.000s      0.003w     52 calls
JK: USO2AO                          :      0.033u      0.000s      0.005w     52 calls
JK: JK                              :      3.383u      0.000s      0.526w     52 calls
| DFH: compute_JK()                 :      3.367u      0.000s      0.526w     52 calls
| | DFH: Grabbing AOs               :      0.000u      0.000s      0.000w     52 calls
| | DFH: compute_J                  :      0.117u      0.000s      0.035w     52 calls
| | DFH: compute_K                  :      3.183u      0.000s      0.487w     52 calls
JK: AO2USO                          :      0.017u      0.000s      0.001w     52 calls

**************************************************************************************

Host: Maxs-Air

Timers On : Wed Jul  7 19:39:41 2021
Timers Off: Wed Jul  7 19:39:47 2021

Wall Time:        6.07 seconds

                                                       Time (seconds)
Module                                       User      System        Wall        Calls
DFH: sparsity prep                  :      0.117u      0.017s      0.036w     10 calls
Libint2ERI::Libint2ERI              :      0.617u      0.033s      0.099w    180 calls
DFH: initialize()                   :      0.783u      0.067s      0.147w     10 calls
DFH: AO Construction                :      0.050u      0.000s      0.013w     10 calls
DFH: AO-Met. Contraction            :      0.033u      0.000s      0.007w     10 calls
HF: Form core H                     :      0.117u      0.017s      0.020w      8 calls
HF: Form S/X                        :      0.000u      0.000s      0.002w      8 calls
HF: Guess                           :      0.633u      0.050s      0.112w      8 calls
SAD Guess                           :      0.600u      0.050s      0.108w      5 calls
HF: Form G                          :      0.150u      0.017s      0.025w     79 calls
JK: D                               :      0.000u      0.000s      0.001w    103 calls
JK: USO2AO                          :      0.000u      0.000s      0.002w    103 calls
JK: JK                              :      0.283u      0.017s      0.049w    103 calls
DFH: compute_JK()                   :      0.233u      0.017s      0.049w    103 calls
DFH: Grabbing AOs                   :      0.000u      0.000s      0.000w    103 calls
DFH: compute_J                      :      0.017u      0.000s      0.005w    103 calls
DFH: compute_K                      :      0.167u      0.017s      0.041w    103 calls
JK: AO2USO                          :      0.050u      0.000s      0.002w    103 calls
HF: Form F                          :      0.000u      0.000s      0.000w     79 calls
HF: Form D                          :      0.000u      0.000s      0.001w     79 calls
HF: DIIS                            :      0.183u      0.033s      0.033w     74 calls
DIISManager::add_entry              :      0.017u      0.033s      0.004w     71 calls
DIISManager::extrapolate            :      0.017u      0.000s      0.003w     71 calls
bMatrix setup                       :      0.017u      0.000s      0.001w     71 calls
bMatrix pseudoinverse               :      0.000u      0.000s      0.001w     71 calls
New vector                          :      0.000u      0.000s      0.001w     71 calls
HF: Form C                          :      0.050u      0.000s      0.004w     74 calls
Grad: V T Perturb                   :      4.150u      0.533s      0.723w      6 calls
Grad: S                             :      0.000u      0.000s      0.001w      6 calls
Grad: JK                            :      0.917u      0.050s      0.163w      6 calls
JKGrad: Amn                         :      0.250u      0.033s      0.042w      6 calls
JKGrad: Awmn                        :      0.000u      0.000s      0.000w      6 calls
JKGrad: AB                          :      0.200u      0.000s      0.031w      6 calls
JKGrad: UV                          :      0.000u      0.000s      0.001w      6 calls
JKGrad: ABx                         :      0.050u      0.000s      0.010w      6 calls
JKGrad: Amnx                        :      0.367u      0.000s      0.069w      6 calls
Grad: XC                            :      0.000u      0.000s      0.000w      6 calls
Hess: XC                            :      0.000u      0.000s      0.000w      2 calls
Hess: V                             :      2.133u      0.367s      0.391w      2 calls
Hess: T                             :      0.000u      0.000s      0.001w      2 calls
Hess: S                             :      0.000u      0.000s      0.000w      2 calls
Hess: JK                            :      3.350u      0.133s      0.538w      2 calls

--------------------------------------------------------------------------------------
DFH: sparsity prep                  :      0.117u      0.017s      0.036w     10 calls
| Libint2ERI::Libint2ERI            :      0.100u      0.000s      0.026w     10 calls
DFH: initialize()                   :      0.783u      0.067s      0.147w     10 calls
| Libint2ERI::Libint2ERI            :      0.117u      0.000s      0.011w     50 calls
| DFH: AO Construction              :      0.050u      0.000s      0.013w     10 calls
| DFH: AO-Met. Contraction          :      0.033u      0.000s      0.007w     10 calls
HF: Form core H                     :      0.117u      0.017s      0.020w      8 calls
HF: Form S/X                        :      0.000u      0.000s      0.002w      8 calls
HF: Guess                           :      0.633u      0.050s      0.112w      8 calls
| SAD Guess                         :      0.600u      0.050s      0.108w      5 calls
HF: Form G                          :      0.150u      0.017s      0.025w     79 calls
| JK: D                             :      0.000u      0.000s      0.000w     79 calls
| JK: USO2AO                        :      0.000u      0.000s      0.002w     79 calls
| JK: JK                            :      0.117u      0.017s      0.020w     79 calls
| | DFH: compute_JK()               :      0.100u      0.017s      0.020w     79 calls
| | | DFH: Grabbing AOs             :      0.000u      0.000s      0.000w     79 calls
| | | DFH: compute_J                :      0.000u      0.000s      0.002w     79 calls
| | | DFH: compute_K                :      0.083u      0.017s      0.016w     79 calls
| JK: AO2USO                        :      0.033u      0.000s      0.002w     79 calls
HF: Form F                          :      0.000u      0.000s      0.000w     79 calls
HF: Form D                          :      0.000u      0.000s      0.001w     79 calls
HF: DIIS                            :      0.183u      0.033s      0.033w     74 calls
| DIISManager::add_entry            :      0.017u      0.033s      0.004w     71 calls
| DIISManager::extrapolate          :      0.017u      0.000s      0.003w     71 calls
| | bMatrix setup                   :      0.017u      0.000s      0.001w     71 calls
| | bMatrix pseudoinverse           :      0.000u      0.000s      0.001w     71 calls
| | New vector                      :      0.000u      0.000s      0.001w     71 calls
HF: Form C                          :      0.050u      0.000s      0.004w     74 calls
Grad: V T Perturb                   :      4.150u      0.533s      0.723w      6 calls
Grad: S                             :      0.000u      0.000s      0.001w      6 calls
Grad: JK                            :      0.917u      0.050s      0.163w      6 calls
| JKGrad: Amn                       :      0.250u      0.033s      0.042w      6 calls
| | Libint2ERI::Libint2ERI          :      0.167u      0.033s      0.026w     24 calls
| JKGrad: Awmn                      :      0.000u      0.000s      0.000w      6 calls
| JKGrad: AB                        :      0.200u      0.000s      0.031w      6 calls
| | Libint2ERI::Libint2ERI          :      0.017u      0.000s      0.001w     24 calls
| JKGrad: UV                        :      0.000u      0.000s      0.001w      6 calls
| JKGrad: ABx                       :      0.050u      0.000s      0.010w      6 calls
| | Libint2ERI::Libint2ERI          :      0.000u      0.000s      0.001w     24 calls
| JKGrad: Amnx                      :      0.367u      0.000s      0.069w      6 calls
| | Libint2ERI::Libint2ERI          :      0.167u      0.000s      0.029w     24 calls
Grad: XC                            :      0.000u      0.000s      0.000w      6 calls
Hess: XC                            :      0.000u      0.000s      0.000w      2 calls
Hess: V                             :      2.133u      0.367s      0.391w      2 calls
Hess: T                             :      0.000u      0.000s      0.001w      2 calls
Hess: S                             :      0.000u      0.000s      0.000w      2 calls
Hess: JK                            :      3.350u      0.133s      0.538w      2 calls
| Libint2ERI::Libint2ERI            :      0.033u      0.000s      0.003w     12 calls
Libint2ERI::Libint2ERI              :      0.017u      0.000s      0.003w     12 calls
JK: D                               :      0.000u      0.000s      0.000w     24 calls
JK: USO2AO                          :      0.000u      0.000s      0.001w     24 calls
JK: JK                              :      0.167u      0.000s      0.029w     24 calls
| DFH: compute_JK()                 :      0.133u      0.000s      0.029w     24 calls
| | DFH: Grabbing AOs               :      0.000u      0.000s      0.000w     24 calls
| | DFH: compute_J                  :      0.017u      0.000s      0.003w     24 calls
| | DFH: compute_K                  :      0.083u      0.000s      0.025w     24 calls
JK: AO2USO                          :      0.017u      0.000s      0.000w     24 calls

**************************************************************************************

Host: Maxs-Air

Timers On : Wed Jul  7 19:42:01 2021
Timers Off: Wed Jul  7 19:42:06 2021

Wall Time:        5.58 seconds

                                                       Time (seconds)
Module                                       User      System        Wall        Calls
DFH: sparsity prep                  :      0.150u      0.000s      0.022w     10 calls
Libint2ERI::Libint2ERI              :      0.550u      0.033s      0.089w    180 calls
DFH: initialize()                   :      0.783u      0.067s      0.138w     10 calls
DFH: AO Construction                :      0.083u      0.017s      0.014w     10 calls
DFH: AO-Met. Contraction            :      0.050u      0.000s      0.007w     10 calls
HF: Form core H                     :      0.117u      0.017s      0.019w      8 calls
HF: Form S/X                        :      0.000u      0.000s      0.001w      8 calls
HF: Guess                           :      0.550u      0.050s      0.092w      8 calls
SAD Guess                           :      0.517u      0.033s      0.089w      5 calls
HF: Form G                          :      0.167u      0.000s      0.021w     79 calls
JK: D                               :      0.017u      0.000s      0.001w    103 calls
JK: USO2AO                          :      0.017u      0.000s      0.002w    103 calls
JK: JK                              :      0.200u      0.000s      0.045w    103 calls
DFH: compute_JK()                   :      0.150u      0.000s      0.045w    103 calls
DFH: Grabbing AOs                   :      0.000u      0.000s      0.000w    103 calls
DFH: compute_J                      :      0.000u      0.000s      0.005w    103 calls
DFH: compute_K                      :      0.133u      0.000s      0.038w    103 calls
JK: AO2USO                          :      0.083u      0.000s      0.002w    103 calls
HF: Form F                          :      0.000u      0.000s      0.000w     79 calls
HF: Form D                          :      0.000u      0.000s      0.000w     79 calls
HF: DIIS                            :      0.217u      0.000s      0.031w     74 calls
DIISManager::add_entry              :      0.017u      0.000s      0.003w     71 calls
DIISManager::extrapolate            :      0.017u      0.000s      0.003w     71 calls
bMatrix setup                       :      0.000u      0.000s      0.001w     71 calls
bMatrix pseudoinverse               :      0.000u      0.000s      0.001w     71 calls
New vector                          :      0.017u      0.000s      0.001w     71 calls
HF: Form C                          :      0.000u      0.000s      0.004w     74 calls
Grad: V T Perturb                   :      4.283u      0.367s      0.707w      6 calls
Grad: S                             :      0.000u      0.000s      0.001w      6 calls
Grad: JK                            :      0.967u      0.067s      0.159w      6 calls
JKGrad: Amn                         :      0.250u      0.050s      0.043w      6 calls
JKGrad: Awmn                        :      0.000u      0.000s      0.000w      6 calls
JKGrad: AB                          :      0.250u      0.000s      0.039w      6 calls
JKGrad: UV                          :      0.000u      0.000s      0.001w      6 calls
JKGrad: ABx                         :      0.067u      0.000s      0.008w      6 calls
JKGrad: Amnx                        :      0.367u      0.017s      0.060w      6 calls
Grad: XC                            :      0.000u      0.000s      0.000w      6 calls
Hess: XC                            :      0.000u      0.000s      0.000w      2 calls
Hess: V                             :      2.000u      0.367s      0.411w      2 calls
Hess: T                             :      0.000u      0.000s      0.001w      2 calls
Hess: S                             :      0.000u      0.000s      0.000w      2 calls
Hess: JK                            :      3.700u      0.183s      0.614w      2 calls

--------------------------------------------------------------------------------------
DFH: sparsity prep                  :      0.150u      0.000s      0.022w     10 calls
| Libint2ERI::Libint2ERI            :      0.117u      0.000s      0.013w     10 calls
DFH: initialize()                   :      0.783u      0.067s      0.138w     10 calls
| Libint2ERI::Libint2ERI            :      0.067u      0.000s      0.012w     50 calls
| DFH: AO Construction              :      0.083u      0.017s      0.014w     10 calls
| DFH: AO-Met. Contraction          :      0.050u      0.000s      0.007w     10 calls
HF: Form core H                     :      0.117u      0.017s      0.019w      8 calls
HF: Form S/X                        :      0.000u      0.000s      0.001w      8 calls
HF: Guess                           :      0.550u      0.050s      0.092w      8 calls
| SAD Guess                         :      0.517u      0.033s      0.089w      5 calls
HF: Form G                          :      0.167u      0.000s      0.021w     79 calls
| JK: D                             :      0.000u      0.000s      0.000w     79 calls
| JK: USO2AO                        :      0.017u      0.000s      0.001w     79 calls
| JK: JK                            :      0.067u      0.000s      0.017w     79 calls
| | DFH: compute_JK()               :      0.067u      0.000s      0.017w     79 calls
| | | DFH: Grabbing AOs             :      0.000u      0.000s      0.000w     79 calls
| | | DFH: compute_J                :      0.000u      0.000s      0.002w     79 calls
| | | DFH: compute_K                :      0.050u      0.000s      0.013w     79 calls
| JK: AO2USO                        :      0.050u      0.000s      0.002w     79 calls
HF: Form F                          :      0.000u      0.000s      0.000w     79 calls
HF: Form D                          :      0.000u      0.000s      0.000w     79 calls
HF: DIIS                            :      0.217u      0.000s      0.031w     74 calls
| DIISManager::add_entry            :      0.017u      0.000s      0.003w     71 calls
| DIISManager::extrapolate          :      0.017u      0.000s      0.003w     71 calls
| | bMatrix setup                   :      0.000u      0.000s      0.001w     71 calls
| | bMatrix pseudoinverse           :      0.000u      0.000s      0.001w     71 calls
| | New vector                      :      0.017u      0.000s      0.001w     71 calls
[...]
DFMP2 aiG Write                     :      0.050u      0.017s      0.012w     55 calls
DFMP2 AB^x                          :      0.583u      0.067s      0.083w     55 calls
DFMP2 Amn^x                         :      3.767u      0.100s      0.600w     55 calls
DFMP2 L                             :      3.050u      0.133s      0.485w     55 calls
DFMP2 P                             :      0.100u      0.033s      0.014w     55 calls
DFMP2 W                             :      0.033u      0.017s      0.016w     55 calls
DFMP2 Z                             :     11.100u      0.667s      1.752w     55 calls
DFMP2 grad                          :     48.333u      3.433s      7.831w     55 calls
CorrGrad: Amn                       :      3.583u      0.317s      0.612w     55 calls
CorrGrad: AB                        :      3.417u      0.050s      0.517w     55 calls
CorrGrad: UV                        :      0.333u      0.033s      0.061w     55 calls
CorrGrad: ABx                       :      0.667u      0.017s      0.087w     55 calls
CorrGrad: Amnx                      :      4.083u      0.083s      0.627w     55 calls
DFMP2 Bia                           :      0.383u      0.017s      0.064w     10 calls
DFMP2 Energy                        :      0.067u      0.000s      0.007w     10 calls
V: Grid                             :     13.317u      0.183s      2.036w     61 calls
Total PK formation time             :     16.817u      0.783s      2.713w     63 calls
ccenergy                            :    187.683u     32.083s     38.916w     63 calls
F build                             :     16.800u      1.250s      3.151w    693 calls
Wmbej build                         :     32.783u      3.533s      5.969w    693 calls
C->Wmbej                            :      1.000u      0.167s      0.218w    693 calls
F->Wmbej                            :     10.117u      1.933s      1.936w    693 calls
E->Wmbej                            :      4.167u      0.550s      0.803w    693 calls
X->Wmbej                            :     16.583u      0.767s      2.851w    693 calls
Z                                   :      4.500u      0.367s      0.738w    693 calls
T2 Build                            :     61.650u      8.650s     11.652w    693 calls
BT2                                 :     15.517u      2.333s      2.824w    693 calls
ABCD:new                            :     28.217u      4.100s      5.135w   1276 calls
ABCD:S                              :      3.667u      0.250s      0.692w   1276 calls
ABCD:A                              :      2.900u      0.433s      0.601w   1276 calls
ABCD:axpy                           :     16.583u      2.583s      2.962w   1276 calls
FT2                                 :      3.383u      0.617s      0.779w    693 calls
WmbejT2                             :     14.000u      1.783s      2.654w    693 calls
CT2                                 :     15.550u      2.717s      2.907w    693 calls
cctriples                           :   1340.450u     87.467s    243.537w     63 calls
ET_RHF                              :     42.617u      1.850s      6.780w     63 calls
malloc)                             :     25.033u      0.883s      2.982w  92339 calls
N7 Terms(ijk)                       :    236.083u     20.250s     41.715w  92339 calls
T3(d) Terms(ijk)                    :    125.967u      6.950s     19.887w  92339 calls
malloc                              :     26.500u      3.233s      6.070w 1983321 calls
N7 Terms(abc)                       :    299.617u     17.467s     64.507w 945491 calls
T3(d) Terms(abc)                    :    152.350u      7.500s     23.189w 945491 calls
cchbar                              :     21.517u      3.783s      4.604w     53 calls
cclambda                            :     77.217u     10.067s     13.987w     53 calls
ccdensity                           :     56.933u      9.867s     13.266w     53 calls

--------------------------------------------------------------------------------------
DFH: sparsity prep                  :      3.883u      0.217s      0.621w    155 calls
| Libint2ERI::Libint2ERI            :      2.417u      0.150s      0.389w    155 calls
DFH: initialize()                   :     20.850u      1.550s      3.427w    155 calls
| Libint2ERI::Libint2ERI            :      2.283u      0.083s      0.366w    775 calls
| DFH: AO Construction              :      2.117u      0.033s      0.349w    155 calls
| DFH: AO-Met. Contraction          :      1.983u      0.000s      0.272w    155 calls
HF: Form core H                     :      3.850u      0.183s      0.618w    214 calls
HF: Form S/X                        :      0.300u      0.000s      0.057w    214 calls
HF: Guess                           :     25.183u      2.367s      4.207w    214 calls
| SAD Guess                         :     24.617u      2.300s      4.075w    194 calls
HF: Form G                          :    115.933u      0.433s     17.518w   2414 calls
| JK: D                             :      0.150u      0.000s      0.015w   2414 calls
| JK: USO2AO                        :      0.333u      0.050s      0.047w   2414 calls
| JK: JK                            :      6.517u      0.250s      1.239w   2414 calls
| | DFH: compute_JK()               :      3.267u      0.050s      0.791w   1626 calls
| | | DFH: Grabbing AOs             :      0.017u      0.000s      0.001w   1626 calls
| | | DFH: compute_J                :      0.167u      0.000s      0.081w   1626 calls
| | | DFH: compute_K                :      2.517u      0.033s      0.644w   1626 calls
| | PK computes JK                  :      2.783u      0.183s      0.441w    788 calls
| JK: AO2USO                        :      0.750u      0.000s      0.050w   2414 calls
| RV: Form V                        :    106.850u      0.100s     16.073w    581 calls
| | Properties                      :     16.152p                         445850 calls
| | Functional                      :     30.807p                         445850 calls
| | V_xc                            :     16.725p                         445850 calls
HF: Form F                          :      0.067u      0.000s      0.021w   2414 calls
HF: Form D                          :      0.100u      0.017s      0.013w   2414 calls
HF: DIIS                            :      7.100u      0.600s      1.154w   2220 calls
| DIISManager::add_entry            :      0.717u      0.317s      0.128w   2200 calls
| DIISManager::extrapolate          :      0.867u      0.100s      0.146w   2200 calls
| | bMatrix setup                   :      0.400u      0.033s      0.052w   2200 calls
| | bMatrix pseudoinverse           :      0.183u      0.000s      0.045w   2200 calls
| | New vector                      :      0.217u      0.050s      0.036w   2200 calls
HF: Form C                          :      1.483u      0.033s      0.343w   2220 calls
Grad: V T Perturb                   :     39.933u      4.067s      6.704w     62 calls
Grad: S                             :      0.033u      0.017s      0.007w     62 calls
Grad: JK                            :     15.583u      0.617s      2.475w     62 calls
| JKGrad: Amn                       :      4.733u      0.250s      0.768w     62 calls
| | Libint2ERI::Libint2ERI          :      3.217u      0.250s      0.538w    248 calls
| JKGrad: Awmn                      :      0.000u      0.000s      0.000w     62 calls
| JKGrad: AB                        :      3.633u      0.117s      0.570w     62 calls
| | Libint2ERI::Libint2ERI          :      0.067u      0.000s      0.010w    248 calls
| JKGrad: UV                        :      0.200u      0.017s      0.029w     62 calls
| JKGrad: ABx                       :      0.633u      0.000s      0.097w     62 calls
| | Libint2ERI::Libint2ERI          :      0.050u      0.000s      0.010w    248 calls
| JKGrad: Amnx                      :      5.933u      0.050s      0.915w     62 calls
| | Libint2ERI::Libint2ERI          :      3.550u      0.050s      0.542w    248 calls
Grad: XC                            :     22.400u      0.017s      3.373w     62 calls
| Properties                        :      7.099p                          38324 calls
| Functional                        :      2.527p                          38324 calls
| V_xc gradient                     :      3.628p                          38324 calls
Hess: XC                            :      0.000u      0.000s      0.000w      4 calls
Hess: V                             :      4.350u      0.750s      0.849w      4 calls
Hess: T                             :      0.000u      0.000s      0.002w      4 calls
Hess: S                             :      0.000u      0.000s      0.001w      4 calls
Hess: JK                            :     11.350u      0.417s      1.835w      4 calls
| Libint2ERI::Libint2ERI            :      0.050u      0.000s      0.009w     24 calls
Libint2ERI::Libint2ERI              :      7.017u      0.600s      1.582w    488 calls
JK: D                               :      0.000u      0.000s      0.002w     52 calls
JK: USO2AO                          :      0.000u      0.000s      0.004w     52 calls
JK: JK                              :      1.800u      0.000s      0.270w     52 calls
| DFH: compute_JK()                 :      1.650u      0.000s      0.270w     52 calls
| | DFH: Grabbing AOs               :      0.000u      0.000s      0.000w     52 calls
| | DFH: compute_J                  :      0.050u      0.000s      0.017w     52 calls
| | DFH: compute_K                  :      1.417u      0.000s      0.250w     52 calls
JK: AO2USO                          :      0.017u      0.000s      0.001w     52 calls
DFMP2 Singles                       :      0.000u      0.000s      0.004w     65 calls
DFMP2 Aia                           :      3.483u      0.200s      0.555w     65 calls
| Libint2ERI::Libint2ERI            :      2.067u      0.100s      0.333w    260 calls
| DFMP2 (A|mn)                      :      0.567u      0.000s      0.123w     65 calls
| DFMP2 (A|mn)C_mi                  :      0.233u      0.017s      0.008w     65 calls
| DFMP2 (A|mi)C_na                  :      0.033u      0.000s      0.006w     65 calls
| DFMP2 Aia Write                   :      0.083u      0.000s      0.006w     65 calls
DFMP2 iaB                           :      2.267u      0.233s      0.375w     55 calls
| DFMP2 Metric                      :      1.683u      0.100s      0.266w     55 calls
| | Libint2ERI::Libint2ERI          :      0.033u      0.000s      0.006w    220 calls
| DFMP2 Aia Read                    :      0.033u      0.017s      0.011w     55 calls
| DFMP2 (ia|A)(A|Q)                 :      0.117u      0.017s      0.033w     55 calls
| DFMP2 Bia Write                   :      0.033u      0.017s      0.005w     55 calls
| DFMP2 Bia Read                    :      0.000u      0.000s      0.001w     55 calls
| DFMP2 (ia|B)(B|Q)                 :      0.183u      0.000s      0.028w     55 calls
| DFMP2 Cia Write                   :      0.050u      0.000s      0.004w     55 calls
DFMP2 aiB                           :      0.217u      0.067s      0.037w     55 calls
DFMP2 Tij                           :      0.767u      0.067s      0.128w     55 calls
| DFMP2 Bia Read                    :      0.000u      0.000s      0.002w    110 calls
| DFMP2 Cia Read                    :      0.000u      0.000s      0.001w     55 calls
| DFMP2 I                           :      0.283u      0.033s      0.057w     55 calls
| DFMP2 T2                          :      0.017u      0.000s      0.006w     55 calls
| DFMP2 G                           :      0.200u      0.017s      0.030w     55 calls
| DFMP2 Pab                         :      0.067u      0.000s      0.009w     55 calls
| DFMP2 Gia Write                   :      0.100u      0.000s      0.005w     55 calls
DFMP2 Tab                           :      0.600u      0.033s      0.103w     55 calls
| DFMP2 Bai Read                    :      0.000u      0.000s      0.001w     55 calls
| DFMP2 Qai Read                    :      0.000u      0.000s      0.001w     55 calls
| DFMP2 I                           :      0.267u      0.017s      0.068w     55 calls
| DFMP2 T2                          :      0.150u      0.000s      0.011w     55 calls
| DFMP2 Pij                         :      0.117u      0.000s      0.006w     55 calls
DFMP2 gamma                         :      0.267u      0.050s      0.051w     55 calls
| DFMP2 Gia Read                    :      0.000u      0.017s      0.001w     55 calls
| DFMP2 Cia Read                    :      0.000u      0.000s      0.001w     55 calls
| DFMP2 g                           :      0.150u      0.017s      0.033w     55 calls
DFMP2 Gia                           :      0.367u      0.133s      0.087w     55 calls
| DFMP2 Gia Read                    :      0.000u      0.000s      0.001w     55 calls
| DFMP2 aiG Write                   :      0.050u      0.017s      0.012w     55 calls
DFMP2 AB^x                          :      0.583u      0.067s      0.083w     55 calls
| Libint2ERI::Libint2ERI            :      0.033u      0.000s      0.009w    220 calls
DFMP2 Amn^x                         :      3.767u      0.100s      0.600w     55 calls
| Libint2ERI::Libint2ERI            :      1.850u      0.083s      0.281w    220 calls
DFMP2 L                             :      3.050u      0.133s      0.485w     55 calls
| Libint2ERI::Libint2ERI            :      1.717u      0.083s      0.273w    220 calls
DFMP2 P                             :      0.100u      0.033s      0.014w     55 calls
DFMP2 W                             :      0.033u      0.017s      0.016w     55 calls
DFMP2 Z                             :     11.100u      0.667s      1.752w     55 calls
| DFH: sparsity prep                :      0.917u      0.117s      0.160w     55 calls
| | Libint2ERI::Libint2ERI          :      0.400u      0.033s      0.078w     55 calls
| DFH: initialize()                 :      6.250u      0.317s      0.983w     55 calls
| | Libint2ERI::Libint2ERI          :      0.433u      0.000s      0.077w    275 calls
| | DFH: AO Construction            :      0.700u      0.017s      0.118w     55 calls
| | DFH: AO-Met. Contraction        :      0.733u      0.000s      0.095w     55 calls
| JK: D                             :      0.050u      0.000s      0.004w    591 calls
| JK: USO2AO                        :      0.000u      0.000s      0.005w    591 calls
| JK: JK                            :      2.733u      0.050s      0.464w    591 calls
| | DFH: compute_JK()               :      2.583u      0.050s      0.462w    591 calls
| | | DFH: Grabbing AOs             :      0.000u      0.000s      0.001w    591 calls
| | | DFH: compute_J                :      0.050u      0.000s      0.026w    591 calls
| | | DFH: compute_K                :      1.917u      0.050s      0.400w    591 calls
| JK: AO2USO                        :      0.083u      0.000s      0.001w    591 calls
DFMP2 grad                          :     48.333u      3.433s      7.831w     55 calls
| Grad: V T Perturb                 :     35.500u      2.733s      5.757w     55 calls
| Grad: S                           :      0.000u      0.000s      0.005w     55 calls
| Grad: JK                          :     12.467u      0.667s      1.994w     55 calls
| | CorrGrad: Amn                   :      3.583u      0.317s      0.612w     55 calls
| | | Libint2ERI::Libint2ERI        :      1.633u      0.067s      0.279w    220 calls
| | CorrGrad: AB                    :      3.417u      0.050s      0.517w     55 calls
| | | Libint2ERI::Libint2ERI        :      0.000u      0.000s      0.009w    220 calls
| | CorrGrad: UV                    :      0.333u      0.033s      0.061w     55 calls
| | CorrGrad: ABx                   :      0.667u      0.017s      0.087w     55 calls
| | | Libint2ERI::Libint2ERI        :      0.083u      0.000s      0.009w    220 calls
| | CorrGrad: Amnx                  :      4.083u      0.083s      0.627w     55 calls
| | | Libint2ERI::Libint2ERI        :      1.900u      0.033s      0.283w    220 calls
DFMP2 Bia                           :      0.383u      0.017s      0.064w     10 calls
| DFMP2 Metric                      :      0.317u      0.000s      0.052w     10 calls
| | Libint2ERI::Libint2ERI          :      0.000u      0.000s      0.001w     40 calls
| DFMP2 Aia Read                    :      0.000u      0.000s      0.002w     10 calls
| DFMP2 (ia|A)(A|Q)                 :      0.033u      0.017s      0.007w     10 calls
| DFMP2 Bia Write                   :      0.017u      0.000s      0.001w     10 calls
DFMP2 Energy                        :      0.067u      0.000s      0.007w     10 calls
| DFMP2 Bia Read                    :      0.017u      0.000s      0.000w     20 calls
V: Grid                             :     13.317u      0.183s      2.036w     61 calls
Total PK formation time             :     16.817u      0.783s      2.713w     63 calls
| Libint2ERI::Libint2ERI            :      5.167u      0.650s      0.885w    315 calls
ccenergy                            :    187.683u     32.083s     38.916w     63 calls
| F build                           :     16.800u      1.250s      3.151w    693 calls
| Wmbej build                       :     32.783u      3.533s      5.969w    693 calls
| | C->Wmbej                        :      1.000u      0.167s      0.218w    693 calls
| | F->Wmbej                        :     10.117u      1.933s      1.936w    693 calls
| | E->Wmbej                        :      4.167u      0.550s      0.803w    693 calls
| | X->Wmbej                        :     16.583u      0.767s      2.851w    693 calls
| Z                                 :      4.500u      0.367s      0.738w    693 calls
| T2 Build                          :     61.650u      8.650s     11.652w    693 calls
| | BT2                             :     15.517u      2.333s      2.824w    693 calls
| | | ABCD:new                      :     15.267u      2.333s      2.822w    693 calls
| | | | ABCD:S                      :      2.133u      0.100s      0.389w    693 calls
| | | | ABCD:A                      :      1.417u      0.250s      0.335w    693 calls
| | | | ABCD:axpy                   :      9.117u      1.517s      1.619w    693 calls
| | FT2                             :      3.383u      0.617s      0.779w    693 calls
| | WmbejT2                         :     14.000u      1.783s      2.654w    693 calls
| | CT2                             :     15.550u      2.717s      2.907w    693 calls
cctriples                           :   1340.450u     87.467s    243.537w     63 calls
| ET_RHF                            :     42.617u      1.850s      6.780w     63 calls
| malloc)                           :     25.033u      0.883s      2.982w  92339 calls
| N7 Terms(ijk)                     :    236.083u     20.250s     41.715w  92339 calls
| T3(d) Terms(ijk)                  :    125.967u      6.950s     19.887w  92339 calls
| malloc                            :     26.500u      3.233s      6.070w 1983321 calls
| N7 Terms(abc)                     :    299.617u     17.467s     64.507w 945491 calls
| T3(d) Terms(abc)                  :    152.350u      7.500s     23.189w 945491 calls
cchbar                              :     21.517u      3.783s      4.604w     53 calls
cclambda                            :     77.217u     10.067s     13.987w     53 calls
| ABCD:new                          :     12.950u      1.767s      2.314w    583 calls
| | ABCD:S                          :      1.533u      0.150s      0.303w    583 calls
| | ABCD:A                          :      1.483u      0.183s      0.267w    583 calls
| | ABCD:axpy                       :      7.467u      1.067s      1.344w    583 calls
ccdensity                           :     56.933u      9.867s     13.266w     53 calls

**************************************************************************************
